/*--------------------------------*- C++ -*----------------------------------*\
| =========                 |                                                 |
| \\      /  F ield         | OpenFOAM: The Open Source CFD Toolbox           |
|  \\    /   O peration     | Version:  dev                                   |
|   \\  /    A nd           | Web:      www.OpenFOAM.org                      |
|    \\/     M anipulation  |                                                 |
\*---------------------------------------------------------------------------*/
FoamFile
{
    version     2.0;
    format      ascii;
    class       volVectorField;
    location    "409";
    object      U;
}
// * * * * * * * * * * * * * * * * * * * * * * * * * * * * * * * * * * * * * //

dimensions      [0 1 -1 0 0 0 0];

internalField   nonuniform List<vector> 
45568
(
(0.992488 -0.203275 -0.145414)
(1.01681 -0.142791 -0.10611)
(1.01235 -0.106553 -0.0830357)
(0.998701 -0.0810497 -0.0665938)
(0.983569 -0.062347 -0.0542691)
(0.968081 -0.0483136 -0.0447854)
(0.952483 -0.0375941 -0.0373036)
(0.937085 -0.0293182 -0.0312946)
(0.922106 -0.0228895 -0.02641)
(0.907666 -0.0178761 -0.0224041)
(0.893812 -0.0139557 -0.0190951)
(0.880573 -0.010883 -0.0163446)
(0.867945 -0.00847075 -0.0140463)
(0.855927 -0.0065752 -0.0121174)
(0.844493 -0.00507845 -0.0104871)
(0.833613 -0.0038967 -0.009105)
(0.823257 -0.00296349 -0.00792982)
(0.813389 -0.00222268 -0.00692508)
(0.803965 -0.00163245 -0.00606297)
(0.79494 -0.00115836 -0.00531998)
(0.786258 -0.000773531 -0.00467734)
(0.777858 -0.000455 -0.00411916)
(0.76966 -0.000183797 -0.00363273)
(0.761575 5.8075e-05 -0.00320691)
(0.753483 0.00028662 -0.00283296)
(0.745239 0.000519678 -0.00250265)
(0.73665 0.000775129 -0.00221005)
(0.727475 0.0010762 -0.00194884)
(0.717385 0.00144898 -0.0017151)
(0.705968 0.00193025 -0.00150376)
(0.69266 0.00256506 -0.00131287)
(0.676739 0.00341917 -0.00113906)
(0.657228 0.00457878 -0.000985045)
(0.632855 0.00617287 -0.000855521)
(0.601916 0.00838311 -0.000779899)
(0.562215 0.0114938 -0.000846817)
(0.51094 0.015975 -0.00140793)
(0.445087 0.0227748 -0.00351811)
(0.361711 0.0339494 -0.0107144)
(0.256624 0.0614536 -0.0337565)
(1.01662 0.0727091 -0.131299)
(1.02459 0.0806789 -0.0894691)
(1.02075 0.0714422 -0.0671703)
(1.01246 0.0607062 -0.0526115)
(1.00403 0.050638 -0.0423408)
(0.995709 0.0418125 -0.0347411)
(0.98729 0.0344078 -0.0288863)
(0.978787 0.0283256 -0.0242407)
(0.970276 0.0233771 -0.0204812)
(0.961804 0.0193713 -0.0173967)
(0.953403 0.0161371 -0.0148408)
(0.945105 0.0135288 -0.0127058)
(0.936938 0.011425 -0.0109116)
(0.928927 0.0097267 -0.00939649)
(0.921088 0.00835346 -0.00811141)
(0.913433 0.00724151 -0.00701721)
(0.905967 0.00634079 -0.00608235)
(0.898687 0.00561154 -0.00528203)
(0.891588 0.00502375 -0.00459382)
(0.884646 0.0045551 -0.00399816)
(0.877836 0.00418998 -0.00348466)
(0.87112 0.00391954 -0.00303912)
(0.864438 0.00374073 -0.00265186)
(0.857719 0.00365714 -0.00231335)
(0.850859 0.00367918 -0.00201756)
(0.843726 0.00382597 -0.00175722)
(0.836137 0.00412671 -0.00152847)
(0.827861 0.00462441 -0.00132538)
(0.818576 0.0053794 -0.00114604)
(0.807874 0.006476 -0.000985286)
(0.795196 0.00803048 -0.000843337)
(0.779817 0.0102043 -0.000716178)
(0.760755 0.0132215 -0.000608694)
(0.736726 0.0173973 -0.000522951)
(0.706 0.02318 -0.000487158)
(0.666327 0.0312281 -0.000568585)
(0.614721 0.0425652 -0.00106721)
(0.547911 0.0590971 -0.00288646)
(0.463333 0.0847272 -0.00905377)
(0.359369 0.132962 -0.0289377)
(0.993026 -0.00999547 -0.116219)
(1.00333 -0.020447 -0.0697843)
(1.00434 -0.0256272 -0.0461964)
(1.00101 -0.0253192 -0.0318167)
(0.996717 -0.0227293 -0.0225964)
(0.992017 -0.019455 -0.0164865)
(0.986889 -0.0161157 -0.0122986)
(0.981453 -0.0130034 -0.00933959)
(0.975844 -0.0102503 -0.0071955)
(0.970147 -0.00789234 -0.0056065)
(0.96441 -0.00591402 -0.00440461)
(0.958674 -0.00427762 -0.00347874)
(0.952967 -0.00293775 -0.00275366)
(0.947312 -0.00184872 -0.00217722)
(0.941727 -0.000966856 -0.0017134)
(0.936224 -0.000253915 -0.00133609)
(0.930806 0.000323574 -0.00102641)
(0.925475 0.000795559 -0.00077023)
(0.920224 0.00118889 -0.000557613)
(0.915041 0.00152827 -0.000379883)
(0.909901 0.00183785 -0.00023173)
(0.904776 0.00214221 -0.000108151)
(0.899616 0.00246851 -3.61814e-06)
(0.894359 0.0028482 8.49415e-05)
(0.888915 0.00331977 0.00015684)
(0.883173 0.00393199 0.000218191)
(0.876967 0.00474782 0.000267976)
(0.870096 0.00585059 0.000310348)
(0.862271 0.00735103 0.000343946)
(0.853135 0.00939889 0.000372844)
(0.84218 0.0121964 0.000394304)
(0.828773 0.0160215 0.000412252)
(0.812025 0.0212568 0.00042054)
(0.790812 0.0284381 0.000418784)
(0.763576 0.0383239 0.000382969)
(0.728357 0.0520228 0.000261741)
(0.68259 0.0711994 -0.000174546)
(0.62355 0.0987297 -0.00168809)
(0.550861 0.139876 -0.00677851)
(0.467963 0.206822 -0.0223999)
(1.00037 -0.00421431 -0.117824)
(1.01086 0.000527759 -0.0718498)
(1.0106 0.00480639 -0.0485467)
(1.00577 0.00782326 -0.0342586)
(1.00008 0.00951037 -0.0248388)
(0.994349 0.0100908 -0.0183289)
(0.988604 0.00998611 -0.0136409)
(0.982916 0.00951203 -0.0101577)
(0.977352 0.00886166 -0.00751525)
(0.971937 0.00815185 -0.00548338)
(0.966668 0.00745133 -0.0039077)
(0.961539 0.00679757 -0.00267943)
(0.956544 0.00620811 -0.00171979)
(0.951678 0.00568901 -0.000969673)
(0.946933 0.00524068 -0.000384321)
(0.942305 0.00486006 7.11418e-05)
(0.937783 0.00454358 0.000423426)
(0.93336 0.00428908 0.000694143)
(0.929019 0.00409649 0.000899794)
(0.924747 0.00396886 0.00105405)
(0.920516 0.00391334 0.00116719)
(0.916298 0.00394259 0.00124809)
(0.912046 0.00407619 0.00130287)
(0.907707 0.00434301 0.00133674)
(0.903201 0.00478397 0.00135561)
(0.898427 0.00545604 0.00136278)
(0.893246 0.00643727 0.00135817)
(0.887485 0.00783465 0.00134754)
(0.880898 0.00979323 0.00132975)
(0.87318 0.0125118 0.00130955)
(0.863913 0.0162608 0.00128487)
(0.852563 0.0214137 0.00126077)
(0.838409 0.0284842 0.0012322)
(0.820537 0.0381932 0.00120248)
(0.797727 0.0515559 0.00115249)
(0.768488 0.0700387 0.00105007)
(0.731042 0.0957754 0.000732572)
(0.683687 0.132078 -0.000389228)
(0.627874 0.184177 -0.00422034)
(0.568792 0.26039 -0.0156361)
(1.00059 -0.00150492 -0.11791)
(1.01147 6.49023e-05 -0.0713721)
(1.01072 -3.59259e-05 -0.0474699)
(1.00573 -0.000844843 -0.0326485)
(1.00014 -0.00149914 -0.0228695)
(0.994604 -0.00188429 -0.0161771)
(0.989089 -0.00200393 -0.0114569)
(0.983619 -0.00190288 -0.00805139)
(0.978251 -0.0016527 -0.00555592)
(0.973009 -0.00131915 -0.00370719)
(0.9679 -0.000950184 -0.00232655)
(0.962929 -0.000577377 -0.00128914)
(0.958096 -0.000219964 -0.000506361)
(0.953404 0.000112093 8.57195e-05)
(0.94885 0.000415758 0.000533712)
(0.94443 0.000692461 0.000871958)
(0.940137 0.000947174 0.0011261)
(0.935963 0.00118814 0.00131531)
(0.931894 0.00142661 0.00145425)
(0.927914 0.00167719 0.00155389)
(0.924 0.00195871 0.00162302)
(0.920123 0.00229568 0.00166795)
(0.916243 0.0027202 0.00169435)
(0.912311 0.00327466 0.00170575)
(0.908259 0.00401516 0.00170525)
(0.904001 0.00501666 0.00169745)
(0.899419 0.00637936 0.00168257)
(0.894367 0.00823755 0.0016643)
(0.888646 0.0107715 0.00164183)
(0.882008 0.0142248 0.00162)
(0.87412 0.0189268 0.00159779)
(0.864569 0.0253271 0.00158002)
(0.852814 0.0340406 0.00156593)
(0.83819 0.0459187 0.00155949)
(0.819865 0.0621442 0.00155355)
(0.796899 0.0843801 0.00152741)
(0.768366 0.114949 0.00138126)
(0.73375 0.157059 0.000712984)
(0.695113 0.21507 -0.00183563)
(0.658177 0.29366 -0.0096573)
(1.00076 -0.000750052 -0.1181)
(1.01195 0.00027956 -0.0714169)
(1.01112 0.000790494 -0.0474278)
(1.00622 0.00112758 -0.0326462)
(1.00074 0.00160695 -0.0229985)
(0.99524 0.002081 -0.0164657)
(0.98971 0.00245977 -0.011886)
(0.984207 0.00273401 -0.00858143)
(0.978802 0.00291128 -0.00614346)
(0.973531 0.00300552 -0.00431403)
(0.968405 0.00303524 -0.00292316)
(0.963432 0.00301924 -0.00185513)
(0.958614 0.00297385 -0.00102925)
(0.953952 0.00291261 -0.000387795)
(0.949442 0.00284686 0.000111317)
(0.945079 0.0027863 0.000499455)
(0.940858 0.00273989 0.00080034)
(0.936767 0.00271725 0.00103224)
(0.932795 0.00272959 0.0012093)
(0.928927 0.00279109 0.00134268)
(0.925142 0.00292035 0.00144117)
(0.921415 0.00314245 0.00151189)
(0.917713 0.00349131 0.0015604)
(0.913992 0.00401299 0.00159142)
(0.910197 0.00476972 0.00160821)
(0.906257 0.00584548 0.00161456)
(0.902078 0.00735339 0.0016134)
(0.897542 0.00944547 0.00160761)
(0.892494 0.0123257 0.00159752)
(0.886743 0.0162686 0.00158719)
(0.880045 0.0216433 0.00157859)
(0.872103 0.0289485 0.00157565)
(0.862555 0.0388596 0.00158169)
(0.850984 0.052296 0.00160214)
(0.836936 0.0705081 0.00163928)
(0.820002 0.0951952 0.00168678)
(0.800003 0.128618 0.00169353)
(0.777366 0.173616 0.00143096)
(0.754315 0.233509 -9.41494e-06)
(0.736696 0.31054 -0.00489569)
(1.00092 -0.000183331 -0.118422)
(1.01226 0.000595703 -0.0716862)
(1.01133 0.00103158 -0.0476072)
(1.00637 0.00115763 -0.0327197)
(1.00085 0.00122192 -0.0229732)
(0.995313 0.00122307 -0.016353)
(0.98976 0.00117237 -0.0116994)
(0.984254 0.00110894 -0.00833971)
(0.978858 0.00105474 -0.00586805)
(0.973603 0.00101643 -0.0040256)
(0.968498 0.000995206 -0.00263942)
(0.963548 0.000990152 -0.00158973)
(0.958753 0.000999506 -0.000791692)
(0.954113 0.00102186 -0.000183754)
(0.949627 0.00105706 0.000279233)
(0.945291 0.00110659 0.000631103)
(0.941098 0.00117405 0.000897182)
(0.937041 0.00126586 0.00109693)
(0.933111 0.00139193 0.00124502)
(0.929294 0.00156666 0.00135303)
(0.925574 0.00181027 0.00142962)
(0.921931 0.00215076 0.0014819)
(0.918338 0.00262634 0.00151507)
(0.914761 0.00328889 0.00153372)
(0.911158 0.00420828 0.00154086)
(0.907473 0.00547829 0.0015393)
(0.903637 0.00722437 0.00153255)
(0.899561 0.00961381 0.00152278)
(0.895136 0.0128694 0.00151018)
(0.89023 0.0172875 0.00149914)
(0.884681 0.023262 0.00149112)
(0.878308 0.0313172 0.00149095)
(0.87091 0.04215 0.00150246)
(0.862302 0.0566872 0.00153375)
(0.852351 0.0761534 0.00159081)
(0.841093 0.102147 0.00168039)
(0.828908 0.136688 0.00178313)
(0.816865 0.182125 0.00179063)
(0.807321 0.240826 0.00117617)
(0.805577 0.313627 -0.00153065)
(1.00099 0.00015378 -0.118745)
(1.0124 0.000722293 -0.071987)
(1.01138 0.00102385 -0.0478466)
(1.00638 0.00111286 -0.0328832)
(1.00088 0.0011825 -0.0230779)
(0.995344 0.00124935 -0.0164237)
(0.989797 0.00130998 -0.0117557)
(0.984297 0.0013724 -0.00839489)
(0.978902 0.00143569 -0.00592973)
(0.973644 0.00149402 -0.00409638)
(0.968532 0.00154347 -0.00271869)
(0.963574 0.00158302 -0.00167523)
(0.958773 0.00161366 -0.000880651)
(0.954129 0.00163815 -0.000273539)
(0.949641 0.00166076 0.000190735)
(0.945308 0.00168732 0.000545416)
(0.941123 0.00172534 0.000815206)
(0.937082 0.00178468 0.00101909)
(0.933176 0.00187832 0.00117132)
(0.929395 0.00202352 0.00128322)
(0.925726 0.00224335 0.00136325)
(0.922154 0.0025688 0.00141846)
(0.91866 0.00304155 0.00145393)
(0.915221 0.00371756 0.00147431)
(0.911805 0.00467175 0.00148269)
(0.908377 0.00600406 0.00148162)
(0.90489 0.00784737 0.00147487)
(0.90129 0.0103777 0.0014645)
(0.897512 0.0138277 0.00145105)
(0.893482 0.0185036 0.00143832)
(0.88912 0.0248071 0.00142863)
(0.884355 0.0332639 0.00142644)
(0.879133 0.0445583 0.00143663)
(0.873464 0.0595755 0.00146749)
(0.867476 0.0794454 0.00152854)
(0.861528 0.105578 0.00163154)
(0.856372 0.139655 0.00177997)
(0.853411 0.183493 0.00193248)
(0.854966 0.238688 0.00183651)
(0.865845 0.305278 0.000606813)
(1.001 0.000396389 -0.119055)
(1.0124 0.00078924 -0.072308)
(1.01132 0.000929299 -0.0481318)
(1.0063 0.000955406 -0.0331133)
(1.00079 0.000964865 -0.0232564)
(0.995254 0.000952342 -0.0165604)
(0.989704 0.000914487 -0.0118585)
(0.984203 0.000860673 -0.00847051)
(0.978809 0.00079805 -0.00598367)
(0.97355 0.000731668 -0.00413341)
(0.968439 0.00066647 -0.0027429)
(0.963483 0.000606973 -0.00169017)
(0.958684 0.000556937 -0.000889288)
(0.954044 0.000519717 -0.000278318)
(0.949563 0.00049882 0.000187945)
(0.945238 0.000498531 0.000543183)
(0.941066 0.000524575 0.000812576)
(0.937043 0.000585034 0.00101539)
(0.933162 0.000691379 0.00116622)
(0.929417 0.000859779 0.00127651)
(0.9258 0.00111275 0.00135496)
(0.922302 0.00148136 0.00140857)
(0.91891 0.00200796 0.00144264)
(0.915612 0.00274999 0.00146165)
(0.912392 0.00378459 0.00146886)
(0.909233 0.00521455 0.00146681)
(0.906115 0.00717596 0.00145895)
(0.903018 0.00984805 0.00144685)
(0.89992 0.0134655 0.00143258)
(0.896809 0.0183332 0.00141818)
(0.893683 0.0248456 0.00140707)
(0.890569 0.033508 0.0014026)
(0.887546 0.0449624 0.00141086)
(0.884783 0.0600132 0.00143889)
(0.882604 0.0796473 0.0014984)
(0.881581 0.105036 0.00160209)
(0.882666 0.137489 0.00176516)
(0.887373 0.178306 0.00198127)
(0.897791 0.228468 0.00215207)
(0.918452 0.287583 0.00180608)
(1.00096 0.000638981 -0.119353)
(1.01227 0.00085693 -0.0726399)
(1.01114 0.000814961 -0.0484403)
(1.0061 0.000794248 -0.033377)
(1.00059 0.00082123 -0.0234719)
(0.995041 0.000874799 -0.0167295)
(0.989482 0.000946361 -0.0119837)
(0.983974 0.00102581 -0.00855598)
(0.978575 0.001102 -0.00603477)
(0.973316 0.00116785 -0.00415618)
(0.968207 0.00122054 -0.00274335)
(0.963254 0.00126006 -0.00167397)
(0.958461 0.00128836 -0.000861361)
(0.953829 0.00130892 -0.00024288)
(0.949358 0.00132658 0.000227565)
(0.945045 0.0013477 0.000584313)
(0.94089 0.00138045 0.000853274)
(0.936889 0.00143541 0.00105416)
(0.933039 0.00152645 0.0012021)
(0.929335 0.00167194 0.00130879)
(0.925776 0.00189639 0.00138329)
(0.922357 0.00223256 0.00143269)
(0.919075 0.00272405 0.00146259)
(0.915929 0.00342918 0.00147737)
(0.912919 0.00442542 0.00148058)
(0.910046 0.00581516 0.00147482)
(0.907319 0.00773284 0.00146292)
(0.904751 0.0103542 0.00144736)
(0.902365 0.0139068 0.00142962)
(0.900207 0.018683 0.00141217)
(0.898347 0.0250545 0.00139797)
(0.896903 0.0334888 0.0013909)
(0.896063 0.0445645 0.00139636)
(0.896121 0.0589834 0.00142218)
(0.897538 0.0775708 0.00147882)
(0.901008 0.101254 0.00158115)
(0.907549 0.130996 0.00174629)
(0.918636 0.167652 0.00198383)
(0.936019 0.211721 0.0022681)
(0.963922 0.262622 0.00237267)
(1.00085 0.00098385 -0.119638)
(1.01197 0.000979319 -0.0729814)
(1.01081 0.000650775 -0.0487772)
(1.00582 0.000348422 -0.0336996)
(1.00035 7.05303e-06 -0.0237871)
(0.994842 -0.000351866 -0.017046)
(0.989312 -0.000675982 -0.0123067)
(0.983822 -0.000946142 -0.00888607)
(0.97843 -0.00116128 -0.00636893)
(0.97317 -0.00132461 -0.00448924)
(0.968056 -0.00144117 -0.00306942)
(0.963096 -0.00151682 -0.00198759)
(0.958297 -0.00155678 -0.001158)
(0.953659 -0.00156506 -0.000519199)
(0.949185 -0.00154401 -2.62231e-05)
(0.944874 -0.00149391 0.000354171)
(0.940726 -0.00141248 0.000647082)
(0.936739 -0.00129423 0.00087145)
(0.932912 -0.00112973 0.00104196)
(0.929245 -0.000904398 0.00116983)
(0.92574 -0.000597076 0.00126403)
(0.922398 -0.000177942 0.00133136)
(0.919226 0.00039431 0.00137755)
(0.916234 0.00117552 0.00140687)
(0.913435 0.00223984 0.0014231)
(0.910853 0.0036851 0.00142896)
(0.908521 0.00563916 0.00142683)
(0.906486 0.0082681 0.00141979)
(0.904816 0.0117849 0.00140961)
(0.903607 0.0164593 0.00139822)
(0.902996 0.0226282 0.00138903)
(0.903178 0.0307056 0.00138568)
(0.904429 0.0411896 0.00139396)
(0.907137 0.0546625 0.00142138)
(0.911847 0.0717783 0.0014772)
(0.919304 0.0932277 0.00157601)
(0.930514 0.119667 0.00173689)
(0.946809 0.151592 0.00197362)
(0.969584 0.189151 0.00229505)
(1.00268 0.231686 0.0025848)
(1.00062 0.00154426 -0.119931)
(1.01137 0.00137517 -0.073338)
(1.01012 0.00142177 -0.0490909)
(1.00507 0.00196438 -0.0339199)
(0.999532 0.00253934 -0.0238815)
(0.993989 0.00299414 -0.0170042)
(0.988466 0.00331569 -0.0121392)
(0.983003 0.00350699 -0.0086146)
(0.977651 0.00358294 -0.00601897)
(0.972434 0.0035674 -0.00408572)
(0.967364 0.00348447 -0.00263444)
(0.962446 0.00335486 -0.0015394)
(0.957683 0.00319559 -0.000710992)
(0.953078 0.00302106 -8.41647e-05)
(0.948634 0.00284372 0.000389235)
(0.94435 0.00267475 0.000745146)
(0.940228 0.00252503 0.00101076)
(0.936269 0.00240619 0.0012067)
(0.932476 0.00233179 0.00134879)
(0.928852 0.00231881 0.00144919)
(0.925403 0.00238929 0.00151732)
(0.922139 0.00257247 0.00156052)
(0.919076 0.00290406 0.00158416)
(0.916234 0.00343496 0.0015926)
(0.913644 0.00423287 0.00158937)
(0.911346 0.00538632 0.00157737)
(0.9094 0.00700988 0.00155896)
(0.907885 0.00925159 0.00153649)
(0.906909 0.0122996 0.00151204)
(0.906615 0.0163894 0.0014877)
(0.907197 0.021811 0.00146657)
(0.908914 0.0289141 0.0014518)
(0.912108 0.038109 0.00144854)
(0.91723 0.0498596 0.00146371)
(0.924868 0.0646638 0.00150889)
(0.935769 0.0830134 0.00159395)
(0.950874 0.105328 0.00173912)
(0.971328 0.13185 0.00195575)
(0.998202 0.162505 0.00226834)
(1.03491 0.196644 0.00260539)
(1.00044 0.00261178 -0.120383)
(1.01083 -2.63919e-05 -0.0740986)
(1.00996 -0.00304388 -0.0500832)
(1.00519 -0.00522762 -0.0351515)
(0.99967 -0.00673317 -0.0253125)
(0.994046 -0.00766647 -0.01857)
(0.9884 -0.00815337 -0.0137733)
(0.982802 -0.00833013 -0.0102585)
(0.977321 -0.00829827 -0.0076261)
(0.971992 -0.00812719 -0.00562205)
(0.966831 -0.00786575 -0.00407735)
(0.96184 -0.00754854 -0.00287553)
(0.957023 -0.00719644 -0.00193364)
(0.952379 -0.00682537 -0.00119181)
(0.947908 -0.00644591 -0.00060589)
(0.943609 -0.00606333 -0.000142698)
(0.939483 -0.00567837 0.000223164)
(0.935531 -0.0052877 0.00051132)
(0.931756 -0.00488374 0.000737183)
(0.928163 -0.00445428 0.000912866)
(0.924762 -0.00398146 0.00104804)
(0.92157 -0.00344055 0.00115045)
(0.918608 -0.00279326 0.00122658)
(0.915907 -0.00199256 0.00128141)
(0.913511 -0.000979057 0.00131898)
(0.911478 0.000324849 0.00134255)
(0.90989 0.00201986 0.00135547)
(0.908853 0.00423473 0.00136035)
(0.908511 0.00713043 0.00135973)
(0.909046 0.0109043 0.00135643)
(0.910699 0.0157939 0.00135329)
(0.913777 0.0220779 0.00135375)
(0.918672 0.0300733 0.00136411)
(0.92587 0.0401242 0.00138923)
(0.935976 0.0525802 0.00144138)
(0.949711 0.0677595 0.00152801)
(0.967926 0.0858946 0.0016691)
(0.991582 0.107054 0.00187313)
(1.02146 0.131045 0.00216469)
(1.06062 0.157281 0.00249991)
(0.996964 0.00928094 -0.120027)
(1.00537 0.0148855 -0.0736655)
(1.00442 0.0183956 -0.0493583)
(1.00015 0.0196768 -0.0340667)
(0.995283 0.0195385 -0.0239315)
(0.9903 0.0187179 -0.0169904)
(0.985205 0.0175576 -0.0120869)
(0.980049 0.0162317 -0.00853896)
(0.97491 0.0148533 -0.00592864)
(0.969839 0.0134936 -0.00398528)
(0.964862 0.0121936 -0.00252623)
(0.959997 0.010975 -0.00142448)
(0.955257 0.00984558 -0.000589772)
(0.950652 0.00880965 4.33412e-05)
(0.946191 0.00786902 0.000522848)
(0.941879 0.00702328 0.000884497)
(0.937724 0.00627159 0.00115516)
(0.93373 0.00561383 0.00135529)
(0.929907 0.0050517 0.00150059)
(0.926267 0.00458992 0.00160318)
(0.922825 0.00423732 0.00167247)
(0.919605 0.00400827 0.00171586)
(0.916636 0.00392259 0.00173931)
(0.913965 0.00400945 0.00174765)
(0.911648 0.00431222 0.00174443)
(0.909764 0.00488729 0.00173262)
(0.908409 0.00579854 0.00171301)
(0.907717 0.00713918 0.00168762)
(0.907857 0.00902807 0.00165768)
(0.909049 0.0116112 0.00162671)
(0.911569 0.0150631 0.00159631)
(0.915763 0.0195867 0.00156888)
(0.922054 0.0254073 0.0015512)
(0.930951 0.0327628 0.00154596)
(0.943056 0.0418837 0.00156471)
(0.959051 0.0529636 0.00161474)
(0.97969 0.0661179 0.00171095)
(1.00577 0.0813311 0.00186366)
(1.03785 0.0983878 0.00209062)
(1.07863 0.11683 0.00235762)
(1.0033 -0.0319331 -0.125745)
(1.01113 -0.0419065 -0.0809348)
(1.00899 -0.0417845 -0.0572383)
(1.00304 -0.0396005 -0.042022)
(0.996854 -0.0368413 -0.0316522)
(0.990901 -0.0338821 -0.0243293)
(0.985038 -0.0309945 -0.0189739)
(0.979251 -0.0283091 -0.0149483)
(0.97358 -0.0258584 -0.0118622)
(0.968041 -0.0236389 -0.00946086)
(0.962636 -0.0216362 -0.00757052)
(0.957365 -0.0198321 -0.00606838)
(0.952231 -0.0182069 -0.00486605)
(0.947238 -0.0167417 -0.00389794)
(0.942389 -0.0154186 -0.00311479)
(0.937689 -0.0142206 -0.00247866)
(0.933143 -0.0131318 -0.00196039)
(0.92876 -0.0121364 -0.00153694)
(0.92455 -0.0112187 -0.00119019)
(0.920529 -0.0103624 -0.000905764)
(0.916718 -0.00954987 -0.000672091)
(0.913146 -0.00876109 -0.000479863)
(0.909853 -0.00797219 -0.000321529)
(0.906894 -0.00715411 -0.000190851)
(0.904342 -0.00627079 -8.22881e-05)
(0.902294 -0.00527451 8.65446e-06)
(0.900875 -0.00409581 8.65128e-05)
(0.900209 -0.0026601 0.000153729)
(0.900497 -0.000887971 0.000213268)
(0.901986 0.00131622 0.00026906)
(0.904989 0.0040649 0.000325362)
(0.909879 0.00748463 0.0003861)
(0.917112 0.0117112 0.000458451)
(0.927211 0.0168803 0.000546013)
(0.940778 0.0231138 0.000658276)
(0.95846 0.0305002 0.000802026)
(0.98094 0.0390703 0.000987347)
(1.00889 0.048768 0.00122106)
(1.04271 0.059412 0.00151417)
(1.0849 0.0707022 0.00182848)
(1.0012 0.109661 -0.145972)
(1.02435 0.0825222 -0.106989)
(1.02584 0.0667337 -0.083979)
(1.01906 0.0553904 -0.0674792)
(1.01064 0.0467346 -0.05502)
(1.00172 0.0399544 -0.045354)
(0.99246 0.03449 -0.0376597)
(0.983063 0.0299848 -0.0314221)
(0.973717 0.0262137 -0.026306)
(0.964521 0.0230231 -0.022076)
(0.955531 0.0203014 -0.018558)
(0.946779 0.0179646 -0.015619)
(0.938287 0.0159474 -0.0131553)
(0.930071 0.0141984 -0.0110844)
(0.922139 0.0126766 -0.00933983)
(0.914499 0.0113488 -0.00786727)
(0.907154 0.010188 -0.00662234)
(0.900111 0.00917222 -0.00556821)
(0.893375 0.00828407 -0.0046746)
(0.886958 0.00750946 -0.003916)
(0.880875 0.00683802 -0.00327152)
(0.875152 0.00626233 -0.00272323)
(0.869823 0.00577863 -0.00225669)
(0.864942 0.0053864 -0.00185952)
(0.860578 0.00508797 -0.00151982)
(0.85683 0.0048929 -0.00122946)
(0.853833 0.00481656 -0.000979845)
(0.851791 0.00487386 -0.000761288)
(0.850927 0.00508888 -0.000566928)
(0.851526 0.00549214 -0.000391123)
(0.853934 0.0061215 -0.000227342)
(0.858571 0.00702468 -7.27091e-05)
(0.865928 0.00824801 8.48185e-05)
(0.876558 0.00984356 0.000252421)
(0.891075 0.0118593 0.000438651)
(0.910114 0.0143301 0.000654945)
(0.934305 0.0172696 0.000912713)
(0.964226 0.0206588 0.00122064)
(1.00014 0.0244224 0.0015896)
(1.0444 0.0284572 0.00198339)
(1.00238 -0.168621 0.0476686)
(1.0095 -0.10214 0.0585216)
(1.00235 -0.0683146 0.0557162)
(0.990845 -0.0476563 0.0507904)
(0.979372 -0.0342624 0.0455074)
(0.968287 -0.0251898 0.0403677)
(0.957431 -0.0188126 0.0356725)
(0.946843 -0.014207 0.0315103)
(0.936589 -0.0108175 0.0278639)
(0.926702 -0.00828651 0.0246868)
(0.917184 -0.00637628 0.0219255)
(0.908046 -0.0049205 0.0195286)
(0.899276 -0.00380418 0.0174475)
(0.890878 -0.00294366 0.01564)
(0.882835 -0.00227154 0.0140679)
(0.875131 -0.00174599 0.0126981)
(0.867748 -0.00133421 0.0115029)
(0.860664 -0.00100746 0.0104582)
(0.853851 -0.000745431 0.00954315)
(0.847276 -0.000531901 0.00874006)
(0.8409 -0.000353554 0.0080339)
(0.834672 -0.000198812 0.00741202)
(0.82853 -5.78671e-05 0.00686349)
(0.822396 7.96324e-05 0.00637908)
(0.816167 0.000223594 0.00595099)
(0.809712 0.000386137 0.00557314)
(0.802862 0.000580478 0.00523996)
(0.795392 0.000824846 0.00494713)
(0.787012 0.00114078 0.00469042)
(0.777339 0.00155923 0.0044659)
(0.765871 0.00211912 0.00426782)
(0.75195 0.00287712 0.0040865)
(0.734711 0.00390858 0.00390104)
(0.713027 0.00532508 0.00366709)
(0.685427 0.0072849 0.0032758)
(0.649996 0.0100381 0.00245724)
(0.604201 0.0139961 0.000476427)
(0.544086 0.0199333 -0.00449306)
(0.462651 0.0294809 -0.0169941)
(0.339424 0.0544976 -0.0478372)
(1.01056 0.0511385 0.0402632)
(1.00359 0.0503527 0.0454789)
(1.0014 0.0405779 0.0406407)
(0.999228 0.032498 0.035695)
(0.997929 0.0261938 0.0313099)
(0.997066 0.021259 0.0274654)
(0.996134 0.0174347 0.0241904)
(0.994983 0.0144669 0.0214323)
(0.993588 0.0121436 0.0191056)
(0.991945 0.0103061 0.0171303)
(0.990054 0.0088395 0.0154431)
(0.987927 0.00765873 0.0139924)
(0.985585 0.00670099 0.0127379)
(0.983049 0.00591879 0.0116464)
(0.980343 0.00527672 0.0106924)
(0.977483 0.0047473 0.009854)
(0.974491 0.00431028 0.00911405)
(0.971377 0.00395087 0.00845876)
(0.968147 0.00365794 0.00787612)
(0.964802 0.00342468 0.00735668)
(0.961329 0.00324752 0.00689221)
(0.957709 0.0031267 0.00647645)
(0.953903 0.0030658 0.00610352)
(0.949858 0.00307342 0.00576929)
(0.94549 0.00316326 0.00546989)
(0.940692 0.00335582 0.00520287)
(0.935303 0.00368042 0.0049658)
(0.929119 0.00417812 0.00475757)
(0.921852 0.00490509 0.00457666)
(0.913137 0.00593947 0.00442234)
(0.902462 0.00738715 0.00429221)
(0.88918 0.00939627 0.00418118)
(0.872396 0.0121691 0.00407531)
(0.85098 0.0159943 0.00394223)
(0.823382 0.0212769 0.00369716)
(0.787632 0.0286303 0.00312582)
(0.741036 0.0390205 0.0016277)
(0.679614 0.054217 -0.00235454)
(0.597056 0.0779562 -0.0127337)
(0.477325 0.12478 -0.0391538)
(0.996939 -0.00225022 0.035821)
(0.992359 -0.00646422 0.0390253)
(0.99437 -0.00926643 0.0342942)
(0.995926 -0.00934718 0.0296007)
(0.997449 -0.00845338 0.0254896)
(0.998978 -0.00732737 0.0219515)
(1.00027 -0.0061634 0.0189872)
(1.00128 -0.00504718 0.0165362)
(1.00206 -0.00402844 0.0145117)
(1.00263 -0.0031251 0.0128323)
(1.003 -0.00233852 0.0114326)
(1.00319 -0.0016602 0.0102599)
(1.0032 -0.00107956 0.00927233)
(1.00304 -0.000583996 0.00843599)
(1.00273 -0.000160501 0.0077244)
(1.00226 0.000203017 0.00711552)
(1.00165 0.00051746 0.00659184)
(1.00089 0.000794496 0.00613927)
(0.99998 0.00104584 0.00574645)
(0.998915 0.00128419 0.00540401)
(0.99768 0.00152319 0.00510459)
(0.996249 0.00177919 0.00484208)
(0.994589 0.00207207 0.00461178)
(0.992645 0.00242717 0.00440995)
(0.990346 0.00287679 0.00423424)
(0.987591 0.00346325 0.00408233)
(0.984242 0.00424288 0.00395365)
(0.980113 0.0052906 0.00384761)
(0.974957 0.00670724 0.00376567)
(0.968439 0.00862834 0.00370752)
(0.96012 0.0112388 0.00367542)
(0.949412 0.0147911 0.00366641)
(0.935542 0.0196344 0.00367611)
(0.917488 0.0262571 0.00367977)
(0.89391 0.0353529 0.00361817)
(0.863062 0.0479437 0.00331896)
(0.822686 0.0656245 0.00231115)
(0.769816 0.0911317 -0.000701858)
(0.700911 0.129811 -0.00892209)
(0.608795 0.195141 -0.02979)
(0.999005 -0.00184494 0.0302358)
(0.99453 0.0020626 0.0309012)
(0.995895 0.00451961 0.0251163)
(0.997007 0.00602821 0.0201319)
(0.99825 0.00681843 0.0161998)
(0.999703 0.00705507 0.0131374)
(1.00111 0.00697009 0.0108038)
(1.00239 0.00671935 0.00904566)
(1.00354 0.0063867 0.00772008)
(1.00456 0.00601961 0.00671261)
(1.00546 0.0056476 0.00593961)
(1.00622 0.00528836 0.00534018)
(1.00686 0.00495228 0.00487023)
(1.00736 0.004645 0.00449728)
(1.00775 0.00437041 0.00419787)
(1.00801 0.00413032 0.00395426)
(1.00816 0.00392633 0.00375368)
(1.00818 0.00376116 0.00358646)
(1.00809 0.00363884 0.00344562)
(1.00786 0.00356575 0.00332576)
(1.00749 0.00355122 0.00322306)
(1.00696 0.00360916 0.00313459)
(1.00622 0.00375955 0.00305851)
(1.00525 0.00403036 0.00299353)
(1.00396 0.00445997 0.00293922)
(1.00229 0.00510128 0.00289547)
(1.00011 0.00602621 0.0028633)
(0.997258 0.00733276 0.00284395)
(0.993536 0.00915393 0.00283979)
(0.988666 0.0116706 0.00285386)
(0.982283 0.0151293 0.00288914)
(0.973914 0.0198691 0.00294861)
(0.962939 0.0263591 0.00303265)
(0.948554 0.0352526 0.0031292)
(0.929736 0.0474807 0.00320103)
(0.905201 0.0643837 0.00312691)
(0.873456 0.0879852 0.00256134)
(0.832978 0.12147 0.000505842)
(0.782913 0.170225 -0.00551684)
(0.720873 0.243736 -0.0207212)
(0.999725 -0.000963455 0.0298609)
(0.995528 0.00161988 0.0302607)
(0.996319 0.00243057 0.0246191)
(0.9972 0.00240819 0.0199942)
(0.998405 0.00222775 0.0164443)
(0.999897 0.00199943 0.0136745)
(1.00139 0.00179253 0.0115187)
(1.00277 0.00164442 0.00983707)
(1.00404 0.00155489 0.00851175)
(1.00519 0.00151141 0.00745322)
(1.00622 0.00150161 0.00659812)
(1.00713 0.00151573 0.00590098)
(1.00793 0.0015463 0.0053285)
(1.00861 0.00158847 0.00485534)
(1.00918 0.00163988 0.00446225)
(1.00964 0.00170024 0.00413397)
(1.01001 0.00177115 0.00385864)
(1.01027 0.00185692 0.00362671)
(1.01043 0.00196445 0.00343065)
(1.01047 0.00210409 0.00326427)
(1.0104 0.00229014 0.00312274)
(1.01018 0.00254263 0.00300209)
(1.00979 0.00288877 0.00289938)
(1.0092 0.00336554 0.00281231)
(1.00834 0.00402286 0.0027394)
(1.00716 0.00492799 0.00267965)
(1.00555 0.00617081 0.0026331)
(1.00338 0.00787295 0.0026003)
(1.00049 0.0101979 0.00258299)
(0.996663 0.0133663 0.00258366)
(0.991609 0.0176768 0.00260596)
(0.984972 0.0235365 0.00265429)
(0.976299 0.0315033 0.00273096)
(0.96503 0.042348 0.00283381)
(0.950507 0.0571477 0.00294233)
(0.931998 0.0774169 0.00298085)
(0.908845 0.105316 0.00271817)
(0.880743 0.143952 0.0014647)
(0.848872 0.197761 -0.00256572)
(0.813444 0.27224 -0.012916)
(1.00012 -0.000760722 0.0303717)
(0.996209 0.000869741 0.0306645)
(0.996785 0.00169631 0.024723)
(0.997622 0.00212354 0.019816)
(0.998846 0.00250283 0.0159803)
(1.00035 0.00279531 0.0129614)
(1.00185 0.00299414 0.0106171)
(1.00325 0.00312419 0.00881296)
(1.00455 0.00320084 0.00742518)
(1.00573 0.00323366 0.0063533)
(1.00681 0.00323232 0.00552154)
(1.00777 0.00320621 0.00487314)
(1.00861 0.00316377 0.00436531)
(1.00936 0.00311247 0.00396548)
(1.01 0.00305944 0.00364893)
(1.01054 0.00301148 0.0033967)
(1.01098 0.00297579 0.00319438)
(1.01133 0.0029607 0.0030309)
(1.01157 0.00297657 0.00289781)
(1.01172 0.00303666 0.00278861)
(1.01176 0.00315848 0.00269835)
(1.01167 0.00336543 0.00262327)
(1.01143 0.00368918 0.0025606)
(1.01102 0.00417224 0.00250838)
(1.01039 0.00487195 0.00246532)
(1.00948 0.00586551 0.00243078)
(1.00822 0.00725599 0.00240474)
(1.00651 0.00918195 0.00238801)
(1.00421 0.0118291 0.00238224)
(1.00117 0.0154463 0.00239005)
(0.997176 0.0203682 0.00241499)
(0.991975 0.0270458 0.00246228)
(0.985272 0.03609 0.00253673)
(0.97674 0.0483303 0.0026412)
(0.96605 0.064898 0.00276743)
(0.952972 0.0873311 0.00287461)
(0.937559 0.117698 0.00281896)
(0.920457 0.158698 0.00217309)
(0.903933 0.213657 -0.000264968)
(0.890079 0.285383 -0.0068695)
(1.00041 -0.000534632 0.0306734)
(0.996733 0.000567987 0.0310674)
(0.997152 0.0012514 0.0250788)
(0.997898 0.00160216 0.0201519)
(0.999069 0.00184065 0.016321)
(1.00052 0.00196836 0.0133297)
(1.00198 0.00200667 0.0110283)
(1.00336 0.00199669 0.00926873)
(1.00465 0.00196336 0.00791702)
(1.00583 0.00191903 0.00686785)
(1.00691 0.00187147 0.0060443)
(1.00788 0.00182604 0.00539072)
(1.00874 0.00178639 0.00486664)
(1.0095 0.00175543 0.00444214)
(1.01016 0.00173613 0.00409512)