/*--------------------------------*- C++ -*----------------------------------*\
| =========                 |                                                 |
| \\      /  F ield         | OpenFOAM: The Open Source CFD Toolbox           |
|  \\    /   O peration     | Version:  dev                                   |
|   \\  /    A nd           | Web:      www.OpenFOAM.org                      |
|    \\/     M anipulation  |                                                 |
\*---------------------------------------------------------------------------*/
FoamFile
{
    version     2.0;
    format      ascii;
    class       volScalarField;
    location    "293";
    object      nut;
}
// * * * * * * * * * * * * * * * * * * * * * * * * * * * * * * * * * * * * * //

dimensions      [0 2 -1 0 0 0 0];

internalField   nonuniform List<scalar> 
45568
(
6.20868e-06
6.85133e-06
7.44854e-06
7.96828e-06
8.41209e-06
8.77912e-06
9.07789e-06
9.31102e-06
9.49122e-06
9.62101e-06
9.71495e-06
9.7716e-06
9.80763e-06
9.81505e-06
9.80942e-06
9.79444e-06
9.76589e-06
9.72881e-06
9.68691e-06
9.63892e-06
9.5901e-06
9.5361e-06
9.4837e-06
9.42601e-06
9.37186e-06
9.311e-06
9.25525e-06
9.18981e-06
9.13077e-06
9.05683e-06
8.99017e-06
8.89975e-06
8.81674e-06
8.69429e-06
8.57778e-06
8.39103e-06
8.20545e-06
7.87871e-06
7.56766e-06
6.89849e-06
8.98322e-06
9.82096e-06
1.05737e-05
1.12467e-05
1.1846e-05
1.23738e-05
1.28339e-05
1.32287e-05
1.35628e-05
1.38412e-05
1.40682e-05
1.42502e-05
1.43932e-05
1.45028e-05
1.45818e-05
1.46379e-05
1.46712e-05
1.46892e-05
1.46876e-05
1.4679e-05
1.46619e-05
1.46298e-05
1.45978e-05
1.45513e-05
1.45099e-05
1.44512e-05
1.44019e-05
1.43303e-05
1.42718e-05
1.41824e-05
1.41092e-05
1.39905e-05
1.38899e-05
1.3718e-05
1.35633e-05
1.32862e-05
1.30176e-05
1.25047e-05
1.19517e-05
1.06811e-05
8.99223e-06
9.81409e-06
1.05291e-05
1.11592e-05
1.17188e-05
1.22144e-05
1.26534e-05
1.30371e-05
1.33722e-05
1.36594e-05
1.39064e-05
1.4114e-05
1.42877e-05
1.44295e-05
1.45453e-05
1.46356e-05
1.47069e-05
1.47584e-05
1.47971e-05
1.48191e-05
1.48342e-05
1.48336e-05
1.48287e-05
1.48152e-05
1.47992e-05
1.47669e-05
1.47424e-05
1.46944e-05
1.46598e-05
1.45937e-05
1.45456e-05
1.44529e-05
1.43816e-05
1.4244e-05
1.41286e-05
1.39061e-05
1.36971e-05
1.32905e-05
1.28336e-05
1.15328e-05
8.9595e-06
9.73644e-06
1.04267e-05
1.10425e-05
1.15924e-05
1.20811e-05
1.25147e-05
1.28959e-05
1.32302e-05
1.35204e-05
1.37718e-05
1.39869e-05
1.41707e-05
1.43252e-05
1.44552e-05
1.45619e-05
1.46503e-05
1.47196e-05
1.47758e-05
1.48163e-05
1.48482e-05
1.48667e-05
1.48804e-05
1.48815e-05
1.48784e-05
1.4869e-05
1.4856e-05
1.48292e-05
1.4807e-05
1.47625e-05
1.47283e-05
1.46599e-05
1.4607e-05
1.45001e-05
1.4413e-05
1.42371e-05
1.40797e-05
1.37666e-05
1.34267e-05
1.26263e-05
8.95278e-06
9.71405e-06
1.03924e-05
1.09987e-05
1.15413e-05
1.20263e-05
1.24578e-05
1.28392e-05
1.31743e-05
1.34667e-05
1.37203e-05
1.39385e-05
1.41253e-05
1.42838e-05
1.44173e-05
1.45289e-05
1.4621e-05
1.46965e-05
1.47566e-05
1.48047e-05
1.48405e-05
1.4868e-05
1.48847e-05
1.48968e-05
1.48982e-05
1.48956e-05
1.48886e-05
1.48727e-05
1.48569e-05
1.48247e-05
1.47987e-05
1.47473e-05
1.47047e-05
1.46259e-05
1.45534e-05
1.44301e-05
1.42976e-05
1.40925e-05
1.38226e-05
1.34031e-05
8.95347e-06
9.71029e-06
1.03856e-05
1.09886e-05
1.15285e-05
1.20111e-05
1.24406e-05
1.28203e-05
1.31542e-05
1.34456e-05
1.36986e-05
1.39167e-05
1.41037e-05
1.42627e-05
1.43972e-05
1.45098e-05
1.46035e-05
1.46802e-05
1.47426e-05
1.47921e-05
1.48308e-05
1.48595e-05
1.48803e-05
1.48931e-05
1.49e-05
1.4899e-05
1.48947e-05
1.4884e-05
1.48716e-05
1.48472e-05
1.48241e-05
1.47859e-05
1.47482e-05
1.4691e-05
1.46304e-05
1.45431e-05
1.44436e-05
1.43023e-05
1.41305e-05
1.38681e-05
8.9546e-06
9.71055e-06
1.03856e-05
1.09879e-05
1.15273e-05
1.20093e-05
1.24385e-05
1.28179e-05
1.31517e-05
1.3443e-05
1.36962e-05
1.39141e-05
1.41015e-05
1.42603e-05
1.43953e-05
1.45077e-05
1.46019e-05
1.46784e-05
1.47416e-05
1.47907e-05
1.48305e-05
1.48588e-05
1.4881e-05
1.48936e-05
1.49025e-05
1.49022e-05
1.48991e-05
1.48909e-05
1.48805e-05
1.48596e-05
1.48414e-05
1.48086e-05
1.47802e-05
1.47323e-05
1.46901e-05
1.46209e-05
1.45582e-05
1.44573e-05
1.43599e-05
1.4209e-05
8.95534e-06
9.71162e-06
1.0387e-05
1.09893e-05
1.15287e-05
1.20107e-05
1.24399e-05
1.28191e-05
1.31529e-05
1.3444e-05
1.36971e-05
1.39148e-05
1.41019e-05
1.42605e-05
1.43953e-05
1.45074e-05
1.46016e-05
1.46779e-05
1.47412e-05
1.47902e-05
1.48302e-05
1.48586e-05
1.48812e-05
1.4894e-05
1.49038e-05
1.49045e-05
1.49023e-05
1.48961e-05
1.48874e-05
1.48707e-05
1.48548e-05
1.48298e-05
1.48062e-05
1.47724e-05
1.47393e-05
1.46962e-05
1.46505e-05
1.45997e-05
1.45366e-05
1.44827e-05
8.95582e-06
9.71281e-06
1.03885e-05
1.09909e-05
1.15303e-05
1.20123e-05
1.24413e-05
1.28206e-05
1.31541e-05
1.34451e-05
1.3698e-05
1.39156e-05
1.41025e-05
1.42611e-05
1.43956e-05
1.45078e-05
1.46016e-05
1.46782e-05
1.4741e-05
1.47904e-05
1.483e-05
1.4859e-05
1.48813e-05
1.48952e-05
1.49046e-05
1.49072e-05
1.49057e-05
1.49016e-05
1.48931e-05
1.48826e-05
1.48672e-05
1.48522e-05
1.48311e-05
1.48131e-05
1.47871e-05
1.47683e-05
1.47398e-05
1.47246e-05
1.47e-05
1.46952e-05
8.95615e-06
9.71387e-06
1.03896e-05
1.09922e-05
1.15314e-05
1.20133e-05
1.2442e-05
1.28212e-05
1.31544e-05
1.34454e-05
1.36978e-05
1.39156e-05
1.41021e-05
1.42609e-05
1.4395e-05
1.45075e-05
1.46009e-05
1.46778e-05
1.47402e-05
1.47902e-05
1.48292e-05
1.48592e-05
1.48809e-05
1.48961e-05
1.49052e-05
1.49098e-05
1.49091e-05
1.49065e-05
1.49008e-05
1.48928e-05
1.48829e-05
1.48721e-05
1.48609e-05
1.48499e-05
1.48411e-05
1.48336e-05
1.48343e-05
1.48399e-05
1.48545e-05
1.48808e-05
8.95638e-06
9.71472e-06
1.03905e-05
1.09931e-05
1.1532e-05
1.20136e-05
1.24419e-05
1.28207e-05
1.31533e-05
1.34439e-05
1.36958e-05
1.39132e-05
1.40991e-05
1.42576e-05
1.43912e-05
1.45036e-05
1.45966e-05
1.46736e-05
1.47356e-05
1.47859e-05
1.48247e-05
1.48553e-05
1.48769e-05
1.48932e-05
1.49023e-05
1.49087e-05
1.49091e-05
1.4908e-05
1.49048e-05
1.49006e-05
1.48945e-05
1.48902e-05
1.48857e-05
1.48862e-05
1.48894e-05
1.48978e-05
1.49137e-05
1.49468e-05
1.49829e-05
1.50575e-05
8.95638e-06
9.71553e-06
1.03915e-05
1.09939e-05
1.15326e-05
1.20139e-05
1.2442e-05
1.28206e-05
1.31534e-05
1.3444e-05
1.36962e-05
1.39136e-05
1.40999e-05
1.42584e-05
1.43923e-05
1.45046e-05
1.45978e-05
1.46745e-05
1.47367e-05
1.47867e-05
1.48258e-05
1.48559e-05
1.48782e-05
1.4894e-05
1.49044e-05
1.49104e-05
1.49131e-05
1.49128e-05
1.49119e-05
1.49099e-05
1.49089e-05
1.49098e-05
1.49131e-05
1.4921e-05
1.49339e-05
1.49607e-05
1.49891e-05
1.50473e-05
1.50995e-05
1.52086e-05
8.95672e-06
9.71709e-06
1.03934e-05
1.09965e-05
1.15353e-05
1.20159e-05
1.24427e-05
1.28195e-05
1.31502e-05
1.34386e-05
1.36888e-05
1.39043e-05
1.4089e-05
1.42461e-05
1.43788e-05
1.44902e-05
1.45828e-05
1.4659e-05
1.47211e-05
1.47708e-05
1.481e-05
1.48403e-05
1.48629e-05
1.48792e-05
1.48903e-05
1.48974e-05
1.49013e-05
1.49034e-05
1.49044e-05
1.49056e-05
1.49089e-05
1.49141e-05
1.49236e-05
1.4942e-05
1.4963e-05
1.50054e-05
1.50449e-05
1.51241e-05
1.51928e-05
1.53173e-05
8.96711e-06
9.7412e-06
1.04235e-05
1.10294e-05
1.15696e-05
1.20513e-05
1.2479e-05
1.28565e-05
1.31876e-05
1.34759e-05
1.37255e-05
1.39399e-05
1.4123e-05
1.4278e-05
1.44083e-05
1.45169e-05
1.46065e-05
1.46795e-05
1.47383e-05
1.47847e-05
1.48207e-05
1.48476e-05
1.48673e-05
1.48806e-05
1.48892e-05
1.48939e-05
1.48962e-05
1.48966e-05
1.48981e-05
1.48972e-05
1.49046e-05
1.49098e-05
1.49234e-05
1.49463e-05
1.49731e-05
1.50232e-05
1.50759e-05
1.51618e-05
1.52541e-05
1.53842e-05
8.94163e-06
9.69969e-06
1.03847e-05
1.09967e-05
1.15421e-05
1.20264e-05
1.24541e-05
1.28292e-05
1.31561e-05
1.34388e-05
1.36819e-05
1.38892e-05
1.4065e-05
1.42125e-05
1.43357e-05
1.4437e-05
1.45198e-05
1.4586e-05
1.46385e-05
1.46787e-05
1.47091e-05
1.47305e-05
1.47453e-05
1.47539e-05
1.47586e-05
1.47598e-05
1.47595e-05
1.47584e-05
1.47585e-05
1.47597e-05
1.47649e-05
1.47745e-05
1.47904e-05
1.48207e-05
1.48556e-05
1.49148e-05
1.49807e-05
1.50771e-05
1.51845e-05
1.53262e-05
8.83402e-06
9.40974e-06
9.96193e-06
1.04717e-05
1.09376e-05
1.13589e-05
1.17369e-05
1.20719e-05
1.23668e-05
1.26232e-05
1.28452e-05
1.30346e-05
1.31958e-05
1.33303e-05
1.34427e-05
1.35338e-05
1.36082e-05
1.36657e-05
1.37112e-05
1.37433e-05
1.37675e-05
1.37808e-05
1.379e-05
1.37898e-05
1.37875e-05
1.37821e-05
1.37738e-05
1.37644e-05
1.37572e-05
1.37516e-05
1.37521e-05
1.37614e-05
1.37666e-05
1.37992e-05
1.38328e-05
1.38913e-05
1.39606e-05
1.40598e-05
1.41727e-05
1.43194e-05
6.37833e-06
7.27745e-06
8.03232e-06
8.65267e-06
9.15824e-06
9.56145e-06
9.88027e-06
1.01228e-05
1.03065e-05
1.04358e-05
1.05282e-05
1.05821e-05
1.06165e-05
1.06218e-05
1.06159e-05
1.06007e-05
1.05735e-05
1.05382e-05
1.04993e-05
1.04551e-05
1.04103e-05
1.03614e-05
1.03141e-05
1.02626e-05
1.02144e-05
1.01606e-05
1.01114e-05
1.00537e-05
1.00017e-05
9.93632e-06
9.87728e-06
9.7967e-06
9.72244e-06
9.61273e-06
9.50822e-06
9.34279e-06
9.18075e-06
8.90437e-06
8.62369e-06
7.93571e-06
7.03825e-05
3.86911e-05
2.83915e-05
2.26713e-05
1.87328e-05
1.60745e-05
1.42054e-05
1.28706e-05
1.18885e-05
1.11718e-05
1.0633e-05
1.02427e-05
9.94747e-06
9.74345e-06
9.59156e-06
9.50408e-06
9.44018e-06
9.40992e-06
9.41207e-06
9.42461e-06
9.46687e-06
9.50826e-06
9.57627e-06
9.63526e-06
9.72013e-06
9.78791e-06
9.88245e-06
9.95107e-06
1.00478e-05
1.01092e-05
1.02013e-05
1.02457e-05
1.03277e-05
1.03471e-05
1.04195e-05
1.04172e-05
1.04995e-05
1.04962e-05
1.05626e-05
1.07274e-05
0.000116276
6.32957e-05
4.58207e-05
3.61341e-05
2.96731e-05
2.5274e-05
2.21151e-05
1.97725e-05
1.79705e-05
1.65643e-05
1.54361e-05
1.45282e-05
1.37804e-05
1.31681e-05
1.2656e-05
1.22333e-05
1.18775e-05
1.15834e-05
1.13359e-05
1.11342e-05
1.09647e-05
1.08319e-05
1.07205e-05
1.06408e-05
1.05729e-05
1.05427e-05
1.0504e-05
1.05041e-05
1.04845e-05
1.05337e-05
1.05229e-05
1.06226e-05
1.06157e-05
1.07731e-05
1.07928e-05
1.10341e-05
1.11223e-05
1.15381e-05
1.18191e-05
1.25315e-05
0.00011861
6.98577e-05
5.21421e-05
4.22466e-05
3.54948e-05
3.05988e-05
2.69222e-05
2.40789e-05
2.18145e-05
1.9991e-05
1.84907e-05
1.72559e-05
1.6218e-05
1.53532e-05
1.46138e-05
1.39943e-05
1.34561e-05
1.30057e-05
1.26082e-05
1.22782e-05
1.19812e-05
1.17396e-05
1.15165e-05
1.13414e-05
1.11739e-05
1.10508e-05
1.09264e-05
1.08447e-05
1.0756e-05
1.07089e-05
1.06619e-05
1.06441e-05
1.06237e-05
1.06706e-05
1.06802e-05
1.08443e-05
1.09941e-05
1.13618e-05
1.1941e-05
1.25859e-05
0.000117729
7.01426e-05
5.29332e-05
4.27573e-05
3.57205e-05
3.07134e-05
2.69835e-05
2.41241e-05
2.18744e-05
2.00784e-05
1.86165e-05
1.74187e-05
1.64191e-05
1.55854e-05
1.48753e-05
1.42761e-05
1.37572e-05
1.3317e-05
1.29297e-05
1.26014e-05
1.23077e-05
1.20609e-05
1.18356e-05
1.16498e-05
1.14752e-05
1.13367e-05
1.12008e-05
1.10993e-05
1.09939e-05
1.09231e-05
1.08441e-05
1.08077e-05
1.07671e-05
1.07539e-05
1.07419e-05
1.07971e-05
1.08776e-05
1.1125e-05
1.16014e-05
1.21882e-05
0.000117498
6.93867e-05
5.25492e-05
4.24332e-05
3.55469e-05
3.06757e-05
2.70627e-05
2.42915e-05
2.21046e-05
2.03481e-05
1.891e-05
1.77228e-05
1.6727e-05
1.58905e-05
1.5177e-05
1.45708e-05
1.40468e-05
1.35979e-05
1.32056e-05
1.28683e-05
1.2571e-05
1.23152e-05
1.20879e-05
1.18931e-05
1.17189e-05
1.15707e-05
1.14377e-05
1.13254e-05
1.12245e-05
1.11403e-05
1.10666e-05
1.10009e-05
1.09584e-05
1.09183e-05
1.09028e-05
1.08913e-05
1.09717e-05
1.10569e-05
1.13966e-05
1.18455e-05
0.000117591
6.89828e-05
5.2203e-05
4.20754e-05
3.52003e-05
3.0336e-05
2.67315e-05
2.39719e-05
2.17995e-05
2.00617e-05
1.8645e-05
1.74818e-05
1.65112e-05
1.57001e-05
1.50115e-05
1.44292e-05
1.39279e-05
1.35008e-05
1.31287e-05
1.28104e-05
1.25304e-05
1.22908e-05
1.20784e-05
1.18974e-05
1.17356e-05
1.15987e-05
1.1476e-05
1.13737e-05
1.12815e-05
1.12066e-05
1.11401e-05
1.10882e-05
1.10527e-05
1.10147e-05
1.10048e-05
1.09958e-05
1.10309e-05
1.11564e-05
1.12481e-05
1.17411e-05
0.000117733
6.88479e-05
5.20407e-05
4.18908e-05
3.50075e-05
3.01495e-05
2.6559e-05
2.38179e-05
2.16651e-05
1.99469e-05
1.85477e-05
1.74005e-05
1.64428e-05
1.5644e-05
1.49643e-05
1.43915e-05
1.38961e-05
1.34768e-05
1.31086e-05
1.27976e-05
1.252e-05
1.22878e-05
1.20763e-05
1.1903e-05
1.17411e-05
1.16131e-05
1.14889e-05
1.13968e-05
1.13009e-05
1.12383e-05
1.11644e-05
1.11277e-05
1.10825e-05
1.10613e-05
1.10345e-05
1.10443e-05
1.10614e-05
1.11354e-05
1.12909e-05
1.14578e-05
0.000117842
6.88395e-05
5.20127e-05
4.18464e-05
3.49501e-05
3.00853e-05
2.64935e-05
2.37515e-05
2.16011e-05
1.98844e-05
1.8489e-05
1.73443e-05
1.63911e-05
1.55952e-05
1.49204e-05
1.43507e-05
1.38603e-05
1.3444e-05
1.30808e-05
1.27724e-05
1.24995e-05
1.22696e-05
1.20627e-05
1.18913e-05
1.17336e-05
1.16069e-05
1.14866e-05
1.13954e-05
1.13036e-05
1.12411e-05
1.11722e-05
1.11353e-05
1.10923e-05
1.10715e-05
1.1046e-05
1.10536e-05
1.10729e-05
1.11211e-05
1.12644e-05
1.13841e-05
0.000117909
6.88914e-05
5.20617e-05
4.18873e-05
3.49794e-05
3.01016e-05
2.64995e-05
2.37453e-05
2.15862e-05
1.98596e-05
1.84589e-05
1.73073e-05
1.6352e-05
1.55518e-05
1.48774e-05
1.43049e-05
1.38167e-05
1.33985e-05
1.30386e-05
1.27287e-05
1.246e-05
1.22284e-05
1.20264e-05
1.1853e-05
1.17007e-05
1.15718e-05
1.14573e-05
1.13631e-05
1.12779e-05
1.12113e-05
1.11494e-05
1.11059e-05
1.10729e-05
1.10393e-05
1.10268e-05
1.10216e-05
1.10354e-05
1.10784e-05
1.11468e-05
1.1302e-05
0.000117931
6.8998e-05
5.21794e-05
4.20135e-05
3.51111e-05
3.02407e-05
2.66487e-05
2.39028e-05
2.1752e-05
2.0029e-05
1.86311e-05
1.74773e-05
1.65203e-05
1.57135e-05
1.50346e-05
1.44529e-05
1.39592e-05
1.35305e-05
1.31651e-05
1.28443e-05
1.25708e-05
1.23282e-05
1.21223e-05
1.19379e-05
1.17828e-05
1.16427e-05
1.15264e-05
1.14204e-05
1.13344e-05
1.12548e-05
1.11928e-05
1.11345e-05
1.11002e-05
1.10525e-05
1.10339e-05
1.10137e-05
1.10185e-05
1.10359e-05
1.10924e-05
1.11452e-05
0.000117903
6.92522e-05
5.23943e-05
4.21956e-05
3.5223e-05
3.02747e-05
2.6609e-05
2.38022e-05
2.16034e-05
1.98458e-05
1.84246e-05
1.72566e-05
1.62927e-05
1.54838e-05
1.48074e-05
1.42298e-05
1.37432e-05
1.3321e-05
1.29645e-05
1.26503e-05
1.23863e-05
1.21494e-05
1.19529e-05
1.17731e-05
1.16276e-05
1.14907e-05
1.13846e-05
1.12805e-05
1.12057e-05
1.11269e-05
1.10774e-05
1.10184e-05
1.09933e-05
1.09551e-05
1.09431e-05
1.09117e-05
1.09505e-05
1.09092e-05
1.10426e-05
1.09616e-05
0.000117775
6.9767e-05
5.29741e-05
4.29388e-05
3.60859e-05
3.12157e-05
2.7587e-05
2.47848e-05
2.2563e-05
2.07664e-05
1.92935e-05
1.80691e-05
1.70444e-05
1.61765e-05
1.54407e-05
1.48084e-05
1.42684e-05
1.37985e-05
1.33963e-05
1.30419e-05
1.27395e-05
1.24695e-05
1.22413e-05
1.20336e-05
1.18612e-05
1.17002e-05
1.1571e-05
1.14452e-05
1.13499e-05
1.12505e-05
1.1182e-05
1.11027e-05
1.10556e-05
1.10001e-05
1.09625e-05
1.09158e-05
1.09127e-05
1.08668e-05
1.09255e-05
1.08787e-05
0.000118897
6.90364e-05
5.15466e-05
4.11e-05
3.39996e-05
2.90415e-05
2.54179e-05
2.26818e-05
2.05615e-05
1.88868e-05
1.75405e-05
1.64462e-05
1.55443e-05
1.47968e-05
1.41695e-05
1.36424e-05
1.31944e-05
1.28147e-05
1.24891e-05
1.22118e-05
1.19725e-05
1.1769e-05
1.15922e-05
1.14432e-05
1.13128e-05
1.12046e-05
1.11108e-05
1.10355e-05
1.097e-05
1.09205e-05
1.08763e-05
1.08473e-05
1.08185e-05
1.08056e-05
1.07943e-05
1.07847e-05
1.079e-05
1.07754e-05
1.08041e-05
1.08108e-05
0.000100761
5.70793e-05
4.28812e-05
3.47526e-05
2.93857e-05
2.55655e-05
2.2773e-05
2.06687e-05
1.90386e-05
1.77616e-05
1.67392e-05
1.59236e-05
1.52562e-05
1.47221e-05
1.4277e-05
1.39252e-05
1.36259e-05
1.33976e-05
1.3204e-05
1.30487e-05
1.29288e-05
1.2832e-05
1.27638e-05
1.27078e-05
1.26744e-05
1.26457e-05
1.26327e-05
1.26176e-05
1.26136e-05
1.26005e-05
1.25953e-05
1.25719e-05
1.25459e-05
1.25085e-05
1.24679e-05
1.23867e-05
1.23316e-05
1.22165e-05
1.2155e-05
1.20647e-05
1.21973e-05
1.29025e-05
1.35628e-05
1.41772e-05
1.47491e-05
1.52799e-05
1.57712e-05
1.62235e-05
1.66382e-05
1.70162e-05
1.73595e-05
1.76693e-05
1.7948e-05
1.8197e-05
1.84189e-05
1.86152e-05
1.87884e-05
1.89395e-05
1.90721e-05
1.91865e-05
1.92862e-05
1.93709e-05
1.94443e-05
1.95058e-05
1.9559e-05
1.96028e-05
1.9642e-05
1.96703e-05
1.96931e-05
1.97059e-05
1.97153e-05
1.97152e-05
1.97108e-05
1.97078e-05
1.96901e-05
1.96803e-05
1.966e-05
1.96496e-05
1.96313e-05
1.96309e-05
6.43678e-06
7.35381e-06
8.10208e-06
8.71205e-06
9.21076e-06
9.61344e-06
9.93371e-06
1.01817e-05
1.03698e-05
1.05066e-05
1.06031e-05
1.06651e-05
1.07021e-05
1.07165e-05
1.07132e-05
1.07024e-05
1.06805e-05
1.065e-05
1.06153e-05
1.05756e-05
1.05349e-05
1.04904e-05
1.04471e-05
1.03999e-05
1.03556e-05
1.0306e-05
1.02607e-05
1.02073e-05
1.01592e-05
1.00983e-05
1.00434e-05
9.96771e-06
9.89813e-06
9.79435e-06
9.69517e-06
9.53743e-06
9.37946e-06
9.11002e-06
8.82655e-06
8.08944e-06
8.11594e-05
4.46087e-05
3.25963e-05
2.48904e-05
1.9951e-05
1.66857e-05
1.44256e-05
1.28181e-05
1.16307e-05
1.07467e-05
1.00628e-05
9.54315e-06
9.12573e-06
8.8123e-06
8.55972e-06
8.35344e-06
8.20263e-06
8.08126e-06
7.9978e-06
7.93104e-06
7.89523e-06
7.86735e-06
7.86643e-06
7.8724e-06
7.88998e-06
7.91099e-06
7.95439e-06
7.98338e-06
8.04137e-06
8.07402e-06
8.13893e-06
8.17284e-06
8.24592e-06
8.27735e-06
8.38608e-06
8.42283e-06
8.64004e-06
8.76418e-06
9.53845e-06
9.58194e-06
0.000183437
9.94707e-05
7.19564e-05
5.69126e-05
4.72425e-05
4.0171e-05
3.49434e-05
3.09719e-05
2.7849e-05
2.53702e-05
2.33351e-05
2.16732e-05
2.02622e-05
1.90978e-05
1.80775e-05
1.71961e-05
1.64381e-05
1.57749e-05
1.51938e-05
1.46738e-05
1.42196e-05
1.38011e-05
1.34415e-05
1.30943e-05
1.28056e-05
1.25047e-05
1.2257e-05
1.19902e-05
1.17727e-05
1.15335e-05
1.12977e-05
1.11054e-05
1.07666e-05
1.05617e-05
1.02129e-05
9.9643e-06
9.65544e-06
9.4467e-06
9.42494e-06
1.04285e-05
0.00025533
0.000152544
0.000112056
8.90398e-05
7.46916e-05
6.4499e-05
5.66905e-05
5.06618e-05
4.58425e-05
4.19346e-05
3.86719e-05
3.59483e-05
3.36013e-05
3.16057e-05
2.9841e-05
2.83254e-05
2.69478e-05
2.57748e-05
2.46853e-05
2.37218e-05
2.28409e-05
2.20642e-05
2.13304e-05
2.06883e-05
2.00608e-05
1.9526e-05
1.89713e-05
1.85204e-05
1.80067e-05
1.75913e-05
1.70915e-05
1.67063e-05
1.61671e-05
1.57907e-05
1.52447e-05
1.47059e-05
1.39965e-05
1.33958e-05
1.23623e-05
1.18971e-05
0.000270861
0.000176843
0.000133685
0.000107776
9.08964e-05
7.87838e-05
6.95032e-05
6.22523e-05
5.64268e-05
5.16637e-05
4.76881e-05
4.43419e-05
4.14729e-05
3.90074e-05
3.68502e-05
3.4972e-05
3.32979e-05
3.18241e-05
3.04923e-05
2.93096e-05
2.82224e-05
2.7257e-05
2.63603e-05
2.55452e-05
2.47795e-05
2.40884e-05
2.34226e-05
2.28091e-05
2.2215e-05
2.16533e-05
2.11044e-05
2.05342e-05
2.00382e-05
1.94514e-05
1.89714e-05
1.85426e-05
1.80552e-05
1.76966e-05
1.66057e-05
1.63568e-05
0.000271624
0.000182712
0.00014054
0.000114697
9.75688e-05
8.49529e-05
7.53219e-05
6.77508e-05
6.16379e-05
5.66056e-05
5.23891e-05
4.88143e-05
4.57432e-05
4.3088e-05
4.07615e-05
3.87184e-05
3.69034e-05
3.52922e-05
3.38431e-05
3.2544e-05
3.13636e-05
3.02962e-05
2.9318e-05
2.84262e-05
2.76005e-05
2.68428e-05
2.61324e-05
2.54772e-05
2.48502e-05
2.42685e-05
2.36912e-05
2.31732e-05
2.26147e-05
2.21465e-05
2.15989e-05
2.12148e-05
2.07726e-05
2.04244e-05
2.00171e-05
1.98499e-05
0.00027127
0.000183368
0.00014164
0.000116429
9.9381e-05
8.67201e-05
7.70801e-05
6.94748e-05
6.33185e-05
5.82408e-05
5.39817e-05
5.03688e-05
4.72646e-05
4.45802e-05
4.2233e-05
4.0173e-05
3.8346e-05
3.67218e-05
3.5265e-05
3.39574e-05
3.27733e-05
3.17003e-05
3.07205e-05
2.9825e-05
2.9001e-05
2.82416e-05
2.75368e-05
2.68825e-05
2.62685e-05
2.56948e-05
2.51481e-05
2.46364e-05
2.41406e-05
2.36778e-05
2.32452e-05
2.29119e-05
2.26459e-05
2.23831e-05
2.22927e-05
2.27836e-05
0.000271227
0.000183247
0.000141476
0.000116582
9.95993e-05
8.70155e-05
7.74293e-05
6.98735e-05
6.37642e-05
5.87275e-05
5.45072e-05
5.09263e-05
4.78524e-05
4.51916e-05
4.2867e-05
4.08236e-05
3.9013e-05
3.74021e-05
3.59582e-05
3.466e-05
3.34849e-05
3.24199e-05
3.14472e-05
3.05596e-05
2.97419e-05
2.89912e-05
2.8294e-05
2.76498e-05
2.7048e-05
2.64862e-05
2.59625e-05
2.54653e-05
2.50121e-05
2.45754e-05
2.42031e-05
2.39683e-05
2.36651e-05
2.36193e-05
2.36867e-05
2.39565e-05
0.000271275
0.000183144
0.000141278
0.000116473
9.95148e-05
8.69683e-05
7.74084e-05
6.98788e-05
6.37974e-05
5.87847e-05
5.45898e-05
5.10298e-05
4.79788e-05
4.53357e-05
4.30324e-05
4.10042e-05
3.92135e-05
3.76155e-05
3.61902e-05
3.49032e-05
3.37465e-05
3.26904e-05
3.17361e-05
3.08549e-05
3.00567e-05
2.93102e-05
2.86353e-05
2.79937e-05
2.74191e-05
2.68591e-05
2.63715e-05
2.58767e-05
2.54731e-05
2.50437e-05
2.47395e-05
2.45358e-05
2.4285e-05
2.42449e-05
2.44765e-05
2.46748e-05
0.000271293
0.000183093
0.000141211
0.000116413
9.94574e-05
8.6912e-05
7.735e-05
6.98161e-05
6.37299e-05
5.87114e-05
5.45123e-05
5.09473e-05
4.78946e-05
4.52481e-05
4.29462e-05
4.09164e-05
3.91303e-05
3.75318e-05
3.61139e-05
3.48269e-05
3.36802e-05
3.26239e-05
3.16823e-05
3.08003e-05
3.00179e-05
2.92693e-05
2.86141e-05
2.79686e-05
2.74195e-05
2.68544e-05
2.63999e-05
2.58998e-05
2.55425e-05
2.51018e-05
2.48704e-05
2.46211e-05
2.44868e-05
2.43582e-05
2.48898e-05
2.46803e-05
0.000271264
0.000183059
0.000141237
0.000116394
9.94425e-05
8.68972e-05
7.73391e-05
6.98152e-05
6.37383e-05
5.87311e-05
5.45402e-05
5.09826e-05
4.79339e-05
4.52892e-05
4.29861e-05
4.09529e-05
3.91619e-05
3.75561e-05
3.61312e-05
3.48343e-05
3.36797e-05
3.26119e-05
3.16625e-05
3.07685e-05
2.99794e-05
2.92194e-05
2.85595e-05
2.79046e-05
2.73533e-05
2.67824e-05
2.63289e-05
2.58289e-05
2.54749e-05
2.50465e-05
2.48152e-05
2.45749e-05
2.4496e-05
2.42757e-05
2.48715e-05
2.4617e-05
0.000271205
0.000182878
0.000141033
0.000115955
9.89186e-05
8.62645e-05
7.6608e-05
6.89929e-05
6.28306e-05
5.77552e-05
5.35056e-05
4.99072e-05
4.6825e-05
4.41624e-05
4.18447e-05
3.98107e-05
3.80178e-05
3.64223e-05
3.50028e-05
3.37232e-05
3.25777e-05
3.15322e-05
3.05937e-05
2.97261e-05
2.89488e-05
2.82202e-05
2.75727e-05
2.69561e-05
2.64179e-05
2.58962e-05
2.54568e-05
2.50207e-05
2.46798e-05
2.43402e-05
2.41121e-05
2.39894e-05
2.38298e-05
2.38998e-05
2.41191e-05
2.42422e-05
0.000270478
0.000180811
0.00013878
0.000113541
9.67559e-05
8.4338e-05
7.49143e-05
6.75002e-05
6.15056e-05
5.65634e-05
5.24156e-05
4.88923e-05
4.58609e-05
4.32324e-05
4.09302e-05
3.89046e-05
3.71055e-05
3.55046e-05
3.40664e-05
3.27764e-05
3.16061e-05
3.0551e-05
2.95852e-05
2.87134e-05
2.79083e-05
2.7181e-05
2.65004e-05
2.58926e-05
2.53165e-05
2.4813e-05
2.43262e-05
2.39209e-05
2.35133e-05
2.32234e-05
2.29194e-05
2.28016e-05
2.2671e-05
2.26665e-05
2.2702e-05
2.30781e-05
0.000256631
0.000161287
0.000121217
9.74866e-05
8.22609e-05
7.11579e-05
6.27072e-05
5.61328e-05
5.08793e-05
4.6594e-05
4.30372e-05
4.00459e-05
3.7497e-05
3.53066e-05
3.34031e-05
3.17419e-05
3.02761e-05
2.89819e-05
2.78251e-05
2.6795e-05
2.58646e-05
2.50317e-05
2.42741e-05
2.36018e-05
2.29738e-05
2.24227e-05
2.1912e-05
2.14722e-05
2.10573e-05
2.07135e-05
2.03891e-05
2.01378e-05
1.99053e-05
1.97497e-05
1.96206e-05
1.95744e-05
1.95991e-05
1.96544e-05
1.98378e-05
2.01274e-05
0.000157545
9.36933e-05
6.95765e-05
5.63063e-05
4.73273e-05
4.09757e-05
3.62858e-05
3.26956e-05
2.98639e-05
2.7583e-05
2.57093e-05
2.41505e-05
2.28353e-05
2.17165e-05
2.07558e-05
1.99253e-05
1.92046e-05
1.85733e-05
1.80235e-05
1.75366e-05
1.71132e-05
1.67357e-05
1.64105e-05
1.61197e-05
1.58748e-05
1.56602e-05
1.55029e-05
1.53406e-05
1.52195e-05
1.51111e-05
1.50145e-05
1.49313e-05
1.48611e-05
1.48062e-05
1.47703e-05
1.47566e-05
1.47754e-05
1.48393e-05
1.49522e-05
1.51733e-05
1.21996e-05
1.28978e-05
1.35333e-05
1.41178e-05
1.46578e-05
1.51573e-05
1.56199e-05
1.60473e-05
1.64415e-05
1.68038e-05
1.71364e-05
1.74405e-05
1.77181e-05
1.79706e-05
1.81998e-05
1.84072e-05
1.85945e-05
1.87638e-05
1.89152e-05
1.90516e-05
1.91725e-05
1.92816e-05
1.93772e-05
1.94642e-05
1.95393e-05
1.96093e-05
1.96686e-05
1.9727e-05
1.97743e-05
1.98118e-05
1.98386e-05
1.9857e-05
1.98641e-05
1.98616e-05
1.98525e-05
1.98358e-05
1.98083e-05
1.9777e-05
1.97404e-05
1.97044e-05
6.41418e-06
7.30768e-06
8.04807e-06
8.65944e-06
9.1608e-06
9.56856e-06
9.89222e-06
1.01458e-05
1.03372e-05
1.04802e-05
1.05796e-05
1.06486e-05
1.06873e-05
1.07097e-05
1.07086e-05
1.07011e-05
1.06844e-05
1.06576e-05
1.06267e-05
1.05905e-05
1.05532e-05
1.0512e-05
1.04719e-05
1.04277e-05
1.03864e-05
1.03397e-05
1.02972e-05
1.02465e-05
1.02012e-05
1.0143e-05
1.00908e-05
1.0018e-05
9.95108e-06
9.85034e-06
9.75366e-06
9.59872e-06
9.44163e-06
9.17128e-06
8.87461e-06
8.11631e-06
8.01057e-05
4.487e-05
3.33281e-05
2.5923e-05
2.11269e-05
1.78676e-05
1.55544e-05
1.38486e-05
1.25628e-05
1.15712e-05
1.07981e-05
1.01856e-05
9.6984e-06
9.30589e-06
8.99091e-06
8.73736e-06
8.53192e-06
8.36893e-06
8.23834e-06
8.13822e-06
8.06012e-06
8.00475e-06
7.96398e-06
7.9482e-06
7.9258e-06
7.92692e-06
7.93246e-06
7.94217e-06
7.96333e-06
7.97689e-06
8.00557e-06
8.02084e-06
8.05894e-06
8.07374e-06
8.15e-06
8.18313e-06
8.37594e-06
8.53431e-06
9.36641e-06
9.50552e-06
0.000198678
0.000112542
8.23497e-05
6.60099e-05
5.52543e-05
4.74348e-05
4.16166e-05
3.71241e-05
3.35568e-05
3.06705e-05
2.82819e-05
2.62956e-05
2.45978e-05
2.31658e-05
2.19049e-05
2.08366e-05
1.98769e-05
1.90369e-05
1.82782e-05
1.76235e-05
1.70074e-05
1.64797e-05
1.59647e-05
1.55294e-05
1.50839e-05
1.46964e-05
1.43069e-05
1.39636e-05
1.35628e-05
1.3243e-05
1.27969e-05
1.2493e-05
1.19764e-05
1.15886e-05
1.09768e-05
1.0539e-05
9.93872e-06
9.5018e-06
9.28805e-06
1.0052e-05
0.000295409
0.000195083
0.000146237
0.000117998
9.9504e-05
8.66565e-05
7.67917e-05
6.91084e-05
6.29506e-05
5.79231e-05
5.37235e-05
5.01917e-05
4.71529e-05
4.45425e-05
4.22456e-05
4.02391e-05
3.84479e-05
3.68559e-05
3.54245e-05
3.41368e-05
3.29268e-05
3.18646e-05
3.08449e-05
2.99426e-05
2.90462e-05
2.82521e-05
2.74312e-05
2.67097e-05
2.58969e-05
2.52042e-05
2.43764e-05
2.36534e-05
2.26363e-05
2.18216e-05
2.06875e-05
1.94855e-05
1.80386e-05
1.62778e-05
1.46914e-05
1.2443e-05
0.000321425
0.000254648
0.000199555
0.00016421
0.000139657
0.00012213
0.000108907
9.8319e-05
8.97915e-05
8.27853e-05
7.69188e-05
7.19525e-05
6.76794e-05
6.39846e-05
6.07441e-05
5.78929e-05
5.53536e-05
5.30892e-05
5.1047e-05
4.92061e-05
4.75266e-05
4.59867e-05
4.4584e-05
4.32757e-05
4.20515e-05
4.08989e-05
3.98243e-05
3.87493e-05
3.7765e-05
3.66668e-05
3.57168e-05
3.4575e-05
3.36012e-05
3.2264e-05
3.12262e-05
2.99325e-05
2.84091e-05
2.6594e-05
2.46649e-05
2.18404e-05
0.000325433
0.000276405
0.000226686
0.000191119
0.00016501
0.00014555
0.000130576
0.000118481
0.000108614
0.000100424
9.35219e-05
8.76327e-05
8.2552e-05
7.81289e-05
7.42379e-05
7.08008e-05
6.77355e-05
6.49935e-05
6.25195e-05
6.02817e-05
5.82449e-05
5.63795e-05
5.46715e-05
5.30838e-05
5.16277e-05
5.02356e-05
4.89752e-05
4.77083e-05
4.65976e-05
4.53822e-05
4.43789e-05
4.31359e-05
4.2217e-05
4.08588e-05
4.00394e-05
3.89204e-05
3.78281e-05
3.62979e-05
3.51305e-05
3.19667e-05
0.000325998
0.000280944
0.000235971
0.000202359
0.000176815
0.000157383
0.000142029
0.00012952
0.000119213
0.00011058
0.000103254
9.69654e-05
9.15125e-05
8.67457e-05
8.25431e-05
7.88162e-05
7.54863e-05
7.25003e-05
6.9804e-05
6.73607e-05
6.51351e-05
6.30981e-05
6.1229e-05
5.94993e-05
5.79034e-05
5.64059e-05
5.50184e-05
5.36926e-05
5.24608e-05
5.12553e-05
5.0136e-05
4.90071e-05
4.79751e-05
4.69014e-05
4.60943e-05
4.53557e-05
4.44005e-05
4.41199e-05
4.45309e-05
4.30634e-05
0.000326128
0.000281365
0.000238079
0.000205746
0.000181055
0.00016213
0.000146929
0.000134516
0.000124226
0.000115563
0.000108178
0.000101811
9.62731e-05
9.14132e-05
8.71189e-05
8.32989e-05
7.98822e-05
7.68075e-05
7.40296e-05
7.15061e-05
6.92063e-05
6.70989e-05
6.51629e-05
6.33756e-05
6.17192e-05
6.01814e-05
5.87398e-05
5.73985e-05
5.61199e-05
5.4937e-05
5.37821e-05
5.27382e-05
5.16915e-05
5.08081e-05
5.01508e-05
4.94743e-05
4.90417e-05
4.87748e-05
4.96917e-05
5.12072e-05
0.00032617
0.000281278
0.000238278
0.000206337
0.000182167
0.00016356
0.000148529
0.000136277
0.000126097
0.000117506
0.000110169
0.00010383
9.8309e-05
9.34526e-05
8.91592e-05
8.53302e-05
8.19069e-05
7.88177e-05
7.60313e-05
7.34898e-05
7.11815e-05
6.90553e-05
6.71139e-05
6.53084e-05
6.36526e-05
6.20993e-05
6.06681e-05
5.93179e-05
5.80644e-05
5.68884e-05
5.57779e-05
5.47782e-05
5.37954e-05
5.30409e-05
5.25273e-05
5.1937e-05
5.17711e-05
5.19709e-05
5.28802e-05
5.5182e-05
0.000326171
0.000281218
0.000238147
0.00020619
0.0001821
0.000163555
0.000148576
0.000136368
0.000126225
0.000117665
0.000110353
0.000104034
9.85301e-05
9.36862e-05
8.94053e-05
8.55838e-05
8.21711e-05
7.90861e-05
7.631e-05
7.37708e-05
7.14744e-05
6.93489e-05
6.74218e-05
6.56165e-05
6.39789e-05
6.24276e-05
6.102e-05
5.96791e-05
5.8456e-05
5.73059e-05
5.62334e-05
5.52931e-05
5.43553e-05
5.37106e-05
5.3285e-05
5.27614e-05
5.28502e-05
5.28114e-05
5.51302e-05
5.51546e-05
0.000326129
0.000281104
0.000237676
0.000205403
0.000181006
0.00016231
0.000147235
0.000134976
0.000124806
0.000116243
0.000108938
0.000102637
9.71532e-05
9.23345e-05
8.80783e-05
8.4282e-05
8.08932e-05
7.78312e-05
7.50773e-05
7.2559e-05
7.02829e-05
6.81776e-05
6.62701e-05
6.44872e-05
6.28701e-05
6.1348e-05
5.99635e-05
5.86647e-05
5.74694e-05
5.63835e-05
5.53454e-05
5.45016e-05
5.3604e-05
5.31039e-05
5.26526e-05
5.24433e-05
5.22964e-05
5.28645e-05
5.44428e-05
5.60981e-05
0.000325909
0.000279972
0.000234999
0.000201788
0.0001767
0.000157695
0.000142503
0.000130159
0.000119961
0.000111411
0.000104141
9.78945e-05
9.24725e-05
8.77267e-05
8.35422e-05
7.98249e-05
7.65091e-05
7.35273e-05
7.08438e-05
6.84052e-05
6.61962e-05
6.41706e-05
6.23273e-05
6.06257e-05
5.90725e-05
5.76361e-05
5.63203e-05
5.5115e-05
5.40026e-05
5.30208e-05
5.20965e-05
5.13624e-05
5.06433e-05
5.02255e-05
4.99801e-05
4.99326e-05
4.99949e-05
5.05781e-05
5.16665e-05
5.37391e-05
0.000324
0.00027062
0.000221659
0.000187337
0.000162287
0.000143805
0.000129284
0.00011758
0.000108004
0.000100026
9.32771e-05
8.74957e-05
8.249e-05
7.81153e-05
7.42611e-05
7.08413e-05
6.77874e-05
6.50478e-05
6.25744e-05
6.03387e-05
5.83014e-05
5.64522e-05
5.47546e-05
5.32132e-05
5.17902e-05
5.04966e-05
4.9305e-05
4.82252e-05
4.72558e-05
4.63611e-05
4.5615e-05
4.49061e-05
4.44576e-05
4.3949e-05
4.39011e-05
4.39523e-05
4.41768e-05
4.49981e-05
4.55733e-05
4.78932e-05
0.000302563
0.00022071
0.000173238
0.000142855
0.000122265
0.000107327
9.56986e-05
8.65024e-05
7.90446e-05
7.28711e-05