/*--------------------------------*- C++ -*----------------------------------*\
| =========                 |                                                 |
| \\      /  F ield         | OpenFOAM: The Open Source CFD Toolbox           |
|  \\    /   O peration     | Version:  dev                                   |
|   \\  /    A nd           | Web:      www.OpenFOAM.org                      |
|    \\/     M anipulation  |                                                 |
\*---------------------------------------------------------------------------*/
FoamFile
{
    version     2.0;
    format      ascii;
    class       volVectorField;
    location    "293";
    object      U;
}
// * * * * * * * * * * * * * * * * * * * * * * * * * * * * * * * * * * * * * //

dimensions      [0 1 -1 0 0 0 0];

internalField   nonuniform List<vector> 
45568
(
(0.992488 -0.203275 -0.145414)
(1.01681 -0.142791 -0.10611)
(1.01235 -0.106553 -0.0830357)
(0.998701 -0.0810497 -0.0665938)
(0.98357 -0.062347 -0.0542691)
(0.968081 -0.0483136 -0.0447854)
(0.952484 -0.0375941 -0.0373036)
(0.937085 -0.0293182 -0.0312946)
(0.922107 -0.0228895 -0.02641)
(0.907667 -0.0178761 -0.0224041)
(0.893813 -0.0139557 -0.0190951)
(0.880574 -0.010883 -0.0163446)
(0.867946 -0.00847074 -0.0140463)
(0.855928 -0.00657518 -0.0121174)
(0.844494 -0.00507844 -0.0104871)
(0.833614 -0.00389668 -0.009105)
(0.823258 -0.00296348 -0.00792981)
(0.81339 -0.00222267 -0.00692508)
(0.803966 -0.00163244 -0.00606297)
(0.794941 -0.00115835 -0.00531998)
(0.786259 -0.00077353 -0.00467734)
(0.777859 -0.000455006 -0.00411916)
(0.769661 -0.000183811 -0.00363273)
(0.761576 5.80517e-05 -0.00320692)
(0.753484 0.000286588 -0.00283297)
(0.74524 0.000519638 -0.00250266)
(0.736651 0.000775082 -0.00221006)
(0.727475 0.00107614 -0.00194886)
(0.717386 0.00144892 -0.00171512)
(0.705968 0.00193019 -0.00150378)
(0.692661 0.002565 -0.00131289)
(0.676741 0.0034191 -0.00113909)
(0.65723 0.0045787 -0.000985078)
(0.632857 0.00617278 -0.000855564)
(0.601919 0.00838299 -0.000779958)
(0.562219 0.0114937 -0.00084691)
(0.510945 0.0159748 -0.00140805)
(0.445093 0.0227746 -0.00351826)
(0.361718 0.0339493 -0.0107143)
(0.256631 0.0614549 -0.0337547)
(1.01662 0.0727091 -0.131299)
(1.02459 0.0806789 -0.0894691)
(1.02075 0.0714422 -0.0671703)
(1.01246 0.0607062 -0.0526115)
(1.00403 0.050638 -0.0423408)
(0.995709 0.0418125 -0.0347411)
(0.98729 0.0344078 -0.0288863)
(0.978788 0.0283256 -0.0242407)
(0.970277 0.0233772 -0.0204812)
(0.961805 0.0193713 -0.0173967)
(0.953404 0.0161371 -0.0148408)
(0.945106 0.0135289 -0.0127058)
(0.936939 0.011425 -0.0109116)
(0.928928 0.00972673 -0.00939649)
(0.921089 0.0083535 -0.00811141)
(0.913434 0.00724154 -0.00701721)
(0.905968 0.00634082 -0.00608235)
(0.898689 0.00561156 -0.00528202)
(0.891589 0.00502376 -0.0045938)
(0.884648 0.00455511 -0.00399815)
(0.877838 0.00418997 -0.00348467)
(0.871121 0.00391952 -0.00303912)
(0.864439 0.00374068 -0.00265186)
(0.85772 0.00365708 -0.00231335)
(0.85086 0.0036791 -0.00201757)
(0.843726 0.00382588 -0.00175723)
(0.836138 0.00412661 -0.00152848)
(0.827861 0.0046243 -0.00132539)
(0.818577 0.00537928 -0.00114606)
(0.807875 0.00647587 -0.000985306)
(0.795197 0.00803035 -0.000843356)
(0.779818 0.0102041 -0.000716203)
(0.760756 0.0132213 -0.000608723)
(0.736728 0.017397 -0.000522991)
(0.706003 0.0231798 -0.000487209)
(0.66633 0.0312277 -0.000568661)
(0.614725 0.0425647 -0.00106731)
(0.547917 0.0590965 -0.00288659)
(0.46334 0.0847264 -0.00905386)
(0.359377 0.132963 -0.0289364)
(0.993026 -0.00999546 -0.116219)
(1.00333 -0.0204469 -0.0697843)
(1.00434 -0.0256272 -0.0461964)
(1.00101 -0.0253192 -0.0318167)
(0.996718 -0.0227293 -0.0225964)
(0.992017 -0.0194549 -0.0164865)
(0.986889 -0.0161156 -0.0122986)
(0.981453 -0.0130033 -0.00933959)
(0.975845 -0.0102503 -0.00719549)
(0.970147 -0.0078923 -0.0056065)
(0.964411 -0.00591398 -0.00440461)
(0.958674 -0.00427757 -0.00347874)
(0.952967 -0.00293769 -0.00275366)
(0.947313 -0.00184866 -0.00217721)
(0.941728 -0.000966799 -0.0017134)
(0.936225 -0.000253861 -0.00133609)
(0.930807 0.000323622 -0.00102641)
(0.925476 0.000795597 -0.000770227)
(0.920225 0.00118891 -0.000557609)
(0.915042 0.00152828 -0.000379879)
(0.909902 0.00183783 -0.000231726)
(0.904776 0.00214217 -0.000108151)
(0.899617 0.00246844 -3.62211e-06)
(0.89436 0.0028481 8.49328e-05)
(0.888916 0.00331965 0.000156828)
(0.883173 0.00393185 0.000218179)
(0.876967 0.00474766 0.000267963)
(0.870096 0.00585042 0.000310335)
(0.862271 0.00735085 0.000343932)
(0.853135 0.00939869 0.000372828)
(0.842181 0.0121962 0.000394288)
(0.828774 0.0160213 0.000412234)
(0.812027 0.0212565 0.000420517)
(0.790814 0.0284378 0.000418756)
(0.763578 0.0383234 0.000382921)
(0.72836 0.0520222 0.000261679)
(0.682594 0.0711985 -0.000174638)
(0.623556 0.0987286 -0.00168823)
(0.550867 0.139875 -0.00677875)
(0.467972 0.206821 -0.0223997)
(1.00037 -0.0042143 -0.117824)
(1.01086 0.000527775 -0.0718498)
(1.0106 0.0048064 -0.0485467)
(1.00577 0.00782328 -0.0342586)
(1.00008 0.0095104 -0.0248388)
(0.994349 0.0100908 -0.0183289)
(0.988605 0.00998615 -0.0136409)
(0.982916 0.00951207 -0.0101577)
(0.977353 0.0088617 -0.00751525)
(0.971938 0.0081519 -0.00548338)
(0.966669 0.00745138 -0.0039077)
(0.96154 0.00679764 -0.00267943)
(0.956545 0.00620818 -0.00171979)
(0.951679 0.00568908 -0.000969668)
(0.946934 0.00524075 -0.000384315)
(0.942306 0.00486013 7.11481e-05)
(0.937784 0.00454365 0.000423432)
(0.933361 0.00428913 0.000694148)
(0.92902 0.00409652 0.000899798)
(0.924748 0.00396887 0.00105406)
(0.920517 0.00391332 0.00116719)
(0.916299 0.00394253 0.00124808)
(0.912047 0.00407609 0.00130286)
(0.907708 0.00434288 0.00133674)
(0.903201 0.00478381 0.0013556)
(0.898427 0.00545585 0.00136277)
(0.893247 0.00643707 0.00135815)
(0.887485 0.00783443 0.00134753)
(0.880898 0.00979299 0.00132974)
(0.873181 0.0125116 0.00130954)
(0.863914 0.0162605 0.00128487)
(0.852564 0.0214134 0.00126068)
(0.83841 0.0284838 0.00123219)
(0.820539 0.0381927 0.00120249)
(0.79773 0.0515552 0.00115245)
(0.768491 0.0700378 0.00105005)
(0.731046 0.0957742 0.000732464)
(0.683692 0.132077 -0.000389505)
(0.62788 0.184174 -0.0042206)
(0.568799 0.260387 -0.0156353)
(1.00059 -0.00150491 -0.11791)
(1.01147 6.49213e-05 -0.0713721)
(1.01072 -3.59038e-05 -0.0474699)
(1.00573 -0.000844816 -0.0326485)
(1.00014 -0.00149911 -0.0228695)
(0.994604 -0.00188426 -0.0161771)
(0.989089 -0.00200389 -0.0114569)
(0.98362 -0.00190283 -0.00805139)
(0.978251 -0.00165264 -0.00555592)
(0.97301 -0.00131909 -0.00370719)
(0.967901 -0.000950112 -0.00232655)
(0.962929 -0.000577297 -0.00128914)
(0.958097 -0.000219876 -0.000506356)
(0.953405 0.000112185 8.57258e-05)
(0.948851 0.000415852 0.000533719)
(0.944431 0.000692549 0.000871965)
(0.940138 0.000947253 0.00112611)
(0.935964 0.0011882 0.00131532)
(0.931895 0.00142664 0.00145426)
(0.927915 0.00167719 0.0015539)
(0.924001 0.00195867 0.00162302)
(0.920124 0.0022956 0.00166794)
(0.916244 0.00272008 0.00169434)
(0.912312 0.0032745 0.00170574)
(0.90826 0.00401496 0.00170524)
(0.904001 0.00501643 0.00169744)
(0.89942 0.00637911 0.00168255)
(0.894368 0.00823729 0.00166429)
(0.888647 0.0107712 0.00164181)
(0.882009 0.0142245 0.00161999)
(0.874121 0.0189265 0.00159778)
(0.86457 0.0253268 0.00158)
(0.852815 0.0340401 0.00156593)
(0.838192 0.0459181 0.00155946)
(0.819867 0.0621434 0.00155351)
(0.796902 0.084379 0.00152736)
(0.76837 0.114948 0.00138113)
(0.733755 0.157057 0.000712735)
(0.695118 0.215067 -0.00183584)
(0.658184 0.293656 -0.00965756)
(1.00076 -0.000750037 -0.1181)
(1.01195 0.000279582 -0.0714169)
(1.01112 0.00079052 -0.0474278)
(1.00622 0.00112761 -0.0326462)
(1.00074 0.00160699 -0.0229985)
(0.99524 0.00208104 -0.0164657)
(0.98971 0.00245982 -0.011886)
(0.984208 0.00273406 -0.00858143)
(0.978803 0.00291134 -0.00614346)
(0.973531 0.00300559 -0.00431402)
(0.968406 0.00303532 -0.00292316)
(0.963433 0.00301933 -0.00185513)
(0.958615 0.00297394 -0.00102924)
(0.953953 0.00291271 -0.000387787)
(0.949443 0.00284696 0.000111326)
(0.945081 0.00278639 0.000499464)
(0.940859 0.00273997 0.000800348)
(0.936768 0.0027173 0.00103224)
(0.932797 0.00272962 0.0012093)
(0.928928 0.00279109 0.00134268)
(0.925143 0.0029203 0.00144117)
(0.921416 0.00314236 0.00151188)
(0.917713 0.00349117 0.00156039)
(0.913993 0.00401281 0.00159141)
(0.910198 0.0047695 0.0016082)
(0.906258 0.00584523 0.00161455)
(0.902079 0.00735312 0.00161338)
(0.897542 0.00944517 0.0016076)
(0.892494 0.0123254 0.00159751)
(0.886744 0.0162683 0.00158718)
(0.880046 0.0216429 0.00157859)
(0.872104 0.0289481 0.00157564)
(0.862556 0.0388591 0.00158168)
(0.850986 0.0522953 0.00160211)
(0.836938 0.0705072 0.00163924)
(0.820004 0.0951939 0.00168671)
(0.800006 0.128616 0.00169342)
(0.777369 0.173614 0.00143072)
(0.75432 0.233506 -9.7277e-06)
(0.736701 0.310536 -0.00489602)
(1.00092 -0.000183315 -0.118422)
(1.01226 0.000595727 -0.0716862)
(1.01133 0.0010316 -0.0476072)
(1.00637 0.00115766 -0.0327197)
(1.00085 0.00122196 -0.0229732)
(0.995313 0.00122312 -0.016353)
(0.98976 0.00117242 -0.0116994)
(0.984254 0.001109 -0.0083397)
(0.978859 0.0010548 -0.00586805)
(0.973604 0.00101651 -0.0040256)
(0.968499 0.000995292 -0.00263942)
(0.963548 0.000990246 -0.00158973)
(0.958753 0.000999608 -0.000791684)
(0.954114 0.00102197 -0.000183745)
(0.949628 0.00105716 0.000279242)
(0.945292 0.00110668 0.000631112)
(0.941099 0.00117413 0.000897189)
(0.937042 0.00126591 0.00109694)
(0.933112 0.00139195 0.00124503)
(0.929295 0.00156664 0.00135303)
(0.925575 0.00181021 0.00142961)
(0.921932 0.00215065 0.0014819)
(0.918338 0.0026262 0.00151506)
(0.914762 0.0032887 0.0015337)
(0.911158 0.00420806 0.00154085)
(0.907473 0.00547804 0.00153928)
(0.903637 0.0072241 0.00153254)
(0.899562 0.00961352 0.00152276)
(0.895137 0.0128691 0.00151017)
(0.890231 0.0172871 0.00149913)
(0.884681 0.0232616 0.00149111)
(0.878308 0.0313168 0.00149095)
(0.870911 0.0421495 0.00150245)
(0.862303 0.0566865 0.00153373)
(0.852353 0.0761524 0.00159077)
(0.841095 0.102146 0.00168033)
(0.82891 0.136686 0.00178303)
(0.816868 0.182123 0.00179045)
(0.807324 0.240823 0.00117583)
(0.805581 0.313623 -0.00153097)
(1.00099 0.000153799 -0.118745)
(1.0124 0.00072232 -0.071987)
(1.01138 0.00102389 -0.0478466)
(1.00638 0.0011129 -0.0328832)
(1.00088 0.00118254 -0.0230779)
(0.995344 0.0012494 -0.0164237)
(0.989797 0.00131004 -0.0117557)
(0.984297 0.00137246 -0.00839488)
(0.978903 0.00143576 -0.00592973)
(0.973644 0.0014941 -0.00409637)
(0.968533 0.00154356 -0.00271868)
(0.963575 0.00158311 -0.00167522)
(0.958774 0.00161376 -0.000880642)
(0.95413 0.00163824 -0.00027353)
(0.949642 0.00166085 0.000190744)
(0.945309 0.0016874 0.000545425)
(0.941124 0.0017254 0.000815214)
(0.937083 0.00178471 0.0010191)
(0.933177 0.00187832 0.00117132)
(0.929396 0.00202349 0.00128322)
(0.925727 0.00224328 0.00136324)
(0.922155 0.00256869 0.00141845)
(0.918661 0.0030414 0.00145392)
(0.915222 0.00371738 0.0014743)
(0.911805 0.00467154 0.00148267)
(0.908377 0.00600383 0.0014816)
(0.90489 0.00784712 0.00147486)
(0.901291 0.0103775 0.00146449)
(0.897512 0.0138275 0.00145104)
(0.893483 0.0185033 0.00143831)
(0.889121 0.0248067 0.00142863)
(0.884356 0.0332634 0.00142643)
(0.879134 0.0445577 0.00143663)
(0.873465 0.0595747 0.00146748)
(0.867477 0.0794443 0.00152851)
(0.86153 0.105577 0.00163149)
(0.856374 0.139653 0.00177988)
(0.853414 0.18349 0.00193233)
(0.854969 0.238685 0.00183619)
(0.865848 0.305274 0.000606411)
(1.001 0.000396409 -0.119055)
(1.0124 0.00078927 -0.072308)
(1.01132 0.000929334 -0.0481318)
(1.0063 0.000955446 -0.0331133)
(1.00079 0.00096491 -0.0232564)
(0.995254 0.000952393 -0.0165604)
(0.989705 0.000914545 -0.0118585)
(0.984204 0.000860739 -0.00847051)
(0.978809 0.000798124 -0.00598366)
(0.97355 0.000731749 -0.00413341)
(0.96844 0.000666559 -0.00274289)
(0.963483 0.000607067 -0.00169017)
(0.958685 0.000557032 -0.00088928)
(0.954045 0.000519808 -0.000278309)
(0.949564 0.000498903 0.000187955)
(0.945239 0.000498598 0.000543191)
(0.941067 0.00052462 0.000812583)
(0.937044 0.000585052 0.0010154)
(0.933163 0.000691366 0.00116622)
(0.929418 0.000859732 0.00127651)
(0.925801 0.00111267 0.00135495)
(0.922303 0.00148124 0.00140857)
(0.918911 0.00200781 0.00144263)
(0.915613 0.00274982 0.00146163)
(0.912392 0.0037844 0.00146884)
(0.909234 0.00521435 0.0014668)
(0.906116 0.00717574 0.00145894)
(0.903018 0.00984782 0.00144684)
(0.899921 0.0134652 0.00143257)
(0.89681 0.0183329 0.00141818)
(0.893684 0.0248452 0.00140707)
(0.89057 0.0335076 0.0014026)
(0.887547 0.0449619 0.00141086)
(0.884784 0.0600124 0.00143888)
(0.882605 0.0796463 0.00149838)
(0.881583 0.105034 0.00160204)
(0.882668 0.137487 0.00176507)
(0.887375 0.178303 0.00198113)
(0.897793 0.228465 0.00215179)
(0.918454 0.287579 0.00180564)
(1.00096 0.000639002 -0.119353)
(1.01227 0.000856962 -0.0726399)
(1.01114 0.000814999 -0.0484403)
(1.0061 0.000794291 -0.033377)
(1.00059 0.000821277 -0.0234719)
(0.995041 0.000874853 -0.0167295)
(0.989482 0.000946422 -0.0119837)
(0.983974 0.00102588 -0.00855597)
(0.978576 0.00110208 -0.00603476)
(0.973316 0.00116794 -0.00415617)
(0.968207 0.00122063 -0.00274334)
(0.963255 0.00126015 -0.00167396)
(0.958462 0.00128845 -0.000861353)
(0.95383 0.00130901 -0.000242871)
(0.949359 0.00132666 0.000227574)
(0.945046 0.00134776 0.000584321)
(0.940891 0.00138049 0.000853282)
(0.93689 0.00143543 0.00105416)
(0.93304 0.00152643 0.00120211)
(0.929336 0.00167189 0.00130878)
(0.925777 0.0018963 0.00138329)
(0.922357 0.00223244 0.00143269)
(0.919076 0.00272391 0.00146258)
(0.91593 0.00342902 0.00147736)
(0.912919 0.00442524 0.00148056)
(0.910047 0.00581496 0.0014748)
(0.907319 0.00773264 0.00146291)
(0.904751 0.010354 0.00144735)
(0.902366 0.0139065 0.00142961)
(0.900208 0.0186827 0.00141216)
(0.898348 0.0250542 0.00139796)
(0.896904 0.0334884 0.00139089)
(0.896064 0.044564 0.00139635)
(0.896122 0.0589827 0.00142216)
(0.897539 0.0775698 0.0014788)
(0.901009 0.101253 0.0015811)
(0.907551 0.130994 0.0017462)
(0.918638 0.16765 0.00198369)
(0.93602 0.211718 0.00226785)
(0.963923 0.262619 0.00237224)
(1.00085 0.000983872 -0.119638)
(1.01197 0.000979351 -0.0729814)
(1.01081 0.000650813 -0.0487772)
(1.00582 0.000348466 -0.0336996)
(1.00035 7.10131e-06 -0.0237871)
(0.994842 -0.000351811 -0.017046)
(0.989313 -0.000675921 -0.0123067)
(0.983822 -0.000946073 -0.00888606)
(0.978431 -0.0011612 -0.00636892)
(0.97317 -0.00132452 -0.00448923)
(0.968057 -0.00144108 -0.00306941)
(0.963097 -0.00151673 -0.00198759)
(0.958298 -0.00155669 -0.00115799)
(0.95366 -0.00156497 -0.00051919)
(0.949186 -0.00154394 -2.62142e-05)
(0.944875 -0.00149385 0.00035418)
(0.940727 -0.00141244 0.00064709)
(0.93674 -0.00129422 0.000871456)
(0.932913 -0.00112975 0.00104196)
(0.929246 -0.000904447 0.00116983)
(0.92574 -0.000597155 0.00126402)
(0.922399 -0.000178052 0.00133136)
(0.919227 0.000394174 0.00137754)
(0.916234 0.00117536 0.00140685)
(0.913436 0.00223967 0.00142308)
(0.910854 0.00368491 0.00142894)
(0.908522 0.00563896 0.00142682)
(0.906487 0.00826789 0.00141978)
(0.904816 0.0117847 0.0014096)
(0.903607 0.016459 0.00139821)
(0.902996 0.0226279 0.00138902)
(0.903178 0.0307052 0.00138567)
(0.90443 0.0411891 0.00139393)
(0.907138 0.0546618 0.00142138)
(0.911848 0.0717774 0.00147718)
(0.919305 0.0932265 0.00157596)
(0.930515 0.119665 0.00173684)
(0.946809 0.15159 0.00197345)
(0.969585 0.189148 0.00229484)
(1.00268 0.231683 0.0025844)
(1.00062 0.00154429 -0.119931)
(1.01137 0.00137521 -0.073338)
(1.01012 0.00142181 -0.0490909)
(1.00507 0.00196442 -0.0339199)
(0.999532 0.00253939 -0.0238815)
(0.993989 0.0029942 -0.0170042)
(0.988466 0.00331575 -0.0121392)
(0.983004 0.00350706 -0.0086146)
(0.977651 0.00358301 -0.00601897)
(0.972435 0.00356748 -0.00408571)
(0.967365 0.00348456 -0.00263443)
(0.962446 0.00335494 -0.00153939)
(0.957684 0.00319568 -0.000710984)
(0.953079 0.00302114 -8.41559e-05)
(0.948635 0.00284379 0.000389244)
(0.944351 0.0026748 0.000745155)
(0.940229 0.00252507 0.00101077)
(0.93627 0.0024062 0.0012067)
(0.932477 0.00233178 0.0013488)
(0.928852 0.00231877 0.00144919)
(0.925404 0.00238921 0.00151732)
(0.92214 0.00257237 0.00156052)
(0.919077 0.00290393 0.00158415)
(0.916235 0.00343481 0.00159259)
(0.913644 0.00423271 0.00158936)
(0.911347 0.00538614 0.00157735)
(0.909401 0.0070097 0.00155894)
(0.907886 0.00925139 0.00153648)
(0.906909 0.0122993 0.00151203)
(0.906615 0.0163891 0.00148769)
(0.907198 0.0218107 0.00146656)
(0.908914 0.0289137 0.00145179)
(0.912109 0.0381085 0.00144852)
(0.91723 0.049859 0.00146371)
(0.924868 0.064663 0.00150886)
(0.93577 0.0830124 0.00159392)
(0.950875 0.105326 0.00173905)
(0.971329 0.131848 0.00195563)
(0.998203 0.162503 0.00226813)
(1.03491 0.196642 0.00260503)
(1.00044 0.0026118 -0.120383)
(1.01084 -2.63636e-05 -0.0740986)
(1.00996 -0.00304384 -0.0500832)
(1.00519 -0.00522758 -0.0351515)
(0.99967 -0.00673313 -0.0253124)
(0.994046 -0.00766643 -0.01857)
(0.9884 -0.00815332 -0.0137733)
(0.982802 -0.00833007 -0.0102585)
(0.977321 -0.0082982 -0.0076261)
(0.971993 -0.00812712 -0.00562205)
(0.966832 -0.00786568 -0.00407734)
(0.961841 -0.00754847 -0.00287553)
(0.957024 -0.00719637 -0.00193363)
(0.952379 -0.0068253 -0.0011918)
(0.947909 -0.00644586 -0.000605882)
(0.94361 -0.00606329 -0.000142691)
(0.939484 -0.00567835 0.00022317)
(0.935532 -0.00528769 0.000511326)
(0.931757 -0.00488376 0.000737186)
(0.928164 -0.00445432 0.000912867)
(0.924763 -0.00398153 0.00104804)
(0.921571 -0.00344064 0.00115045)
(0.918609 -0.00279337 0.00122657)
(0.915907 -0.0019927 0.0012814)
(0.913511 -0.000979203 0.00131897)
(0.911478 0.000324692 0.00134253)
(0.90989 0.0020197 0.00135545)
(0.908853 0.00423455 0.00136034)
(0.908511 0.00713026 0.00135979)
(0.909046 0.0109041 0.00135627)
(0.9107 0.0157936 0.00135323)
(0.913778 0.0220776 0.00135381)
(0.918672 0.0300729 0.0013641)
(0.92587 0.0401237 0.00138926)
(0.935977 0.0525796 0.00144134)
(0.949712 0.0677587 0.001528)
(0.967927 0.0858936 0.00166903)
(0.991582 0.107053 0.00187305)
(1.02147 0.131044 0.00216453)
(1.06062 0.15728 0.00249965)
(0.996964 0.00928096 -0.120027)
(1.00537 0.0148856 -0.0736655)
(1.00442 0.0183956 -0.0493583)
(1.00015 0.0196768 -0.0340667)
(0.995283 0.0195385 -0.0239315)
(0.9903 0.0187179 -0.0169904)
(0.985206 0.0175576 -0.0120869)
(0.98005 0.0162317 -0.00853895)
(0.974911 0.0148533 -0.00592864)
(0.96984 0.0134937 -0.00398527)
(0.964863 0.0121937 -0.00252622)
(0.959998 0.0109751 -0.00142448)
(0.955258 0.00984564 -0.000589765)
(0.950653 0.00880972 4.33492e-05)
(0.946192 0.00786907 0.000522856)
(0.941881 0.00702332 0.000884505)
(0.937725 0.00627161 0.00115516)
(0.933731 0.00561384 0.0013553)
(0.929908 0.00505169 0.0015006)
(0.926268 0.00458988 0.00160319)
(0.922826 0.00423726 0.00167247)
(0.919605 0.00400819 0.00171585)
(0.916637 0.00392249 0.0017393)
(0.913965 0.00400934 0.00174763)
(0.911649 0.0043121 0.00174442)
(0.909765 0.00488717 0.00173264)
(0.90841 0.00579841 0.00171305)
(0.907717 0.00713905 0.00168722)
(0.907857 0.00902794 0.00165814)
(0.90905 0.011611 0.00162646)
(0.91157 0.015063 0.00159591)
(0.915763 0.0195865 0.0015691)
(0.922054 0.0254071 0.00155123)
(0.930951 0.0327625 0.00154617)
(0.943056 0.0418833 0.00156463)
(0.959051 0.052963 0.00161483)
(0.979691 0.0661172 0.00171084)
(1.00577 0.0813302 0.00186352)
(1.03785 0.0983868 0.00209046)
(1.07863 0.116829 0.00235741)
(1.0033 -0.0319331 -0.125745)
(1.01113 -0.0419065 -0.0809348)
(1.00899 -0.0417844 -0.0572383)
(1.00304 -0.0396004 -0.042022)
(0.996854 -0.0368413 -0.0316522)
(0.990902 -0.0338821 -0.0243293)
(0.985038 -0.0309945 -0.0189739)
(0.979251 -0.0283091 -0.0149483)
(0.97358 -0.0258584 -0.0118622)
(0.968041 -0.0236388 -0.00946086)
(0.962636 -0.0216361 -0.00757052)
(0.957366 -0.019832 -0.00606837)
(0.952232 -0.0182069 -0.00486605)
(0.947239 -0.0167417 -0.00389793)
(0.94239 -0.0154185 -0.00311478)
(0.93769 -0.0142206 -0.00247865)
(0.933144 -0.0131318 -0.00196038)
(0.928761 -0.0121364 -0.00153693)
(0.924551 -0.0112187 -0.00119019)
(0.92053 -0.0103624 -0.000905762)
(0.916719 -0.00954992 -0.000672091)
(0.913147 -0.00876116 -0.000479867)
(0.909854 -0.00797227 -0.000321534)
(0.906895 -0.00715419 -0.000190859)
(0.904343 -0.00627088 -8.22987e-05)
(0.902294 -0.0052746 8.64339e-06)
(0.900875 -0.0040959 8.65006e-05)
(0.90021 -0.00266019 0.000153703)
(0.900497 -0.000888076 0.000213358)
(0.901987 0.00131614 0.000268853)
(0.904989 0.00406477 0.00032528)
(0.90988 0.00748455 0.000386167)
(0.917113 0.0117111 0.000458475)
(0.927212 0.0168801 0.000546108)
(0.940778 0.0231135 0.000658236)
(0.95846 0.0304999 0.000801963)
(0.98094 0.0390699 0.000987272)
(1.00889 0.0487675 0.00122096)
(1.04271 0.0594114 0.00151403)
(1.0849 0.0707016 0.00182831)
(1.0012 0.109661 -0.145972)
(1.02435 0.0825222 -0.106989)
(1.02584 0.0667337 -0.083979)
(1.01906 0.0553904 -0.0674792)
(1.01064 0.0467347 -0.05502)
(1.00172 0.0399544 -0.045354)
(0.99246 0.03449 -0.0376597)
(0.983064 0.0299848 -0.0314221)
(0.973717 0.0262137 -0.026306)
(0.964522 0.0230231 -0.022076)
(0.955531 0.0203015 -0.018558)
(0.946779 0.0179646 -0.015619)
(0.938288 0.0159474 -0.0131553)
(0.930072 0.0141984 -0.0110844)
(0.92214 0.0126766 -0.00933983)
(0.9145 0.0113488 -0.00786726)
(0.907156 0.010188 -0.00662233)
(0.900112 0.00917223 -0.00556821)
(0.893376 0.00828407 -0.0046746)
(0.886959 0.00750946 -0.00391601)
(0.880876 0.00683801 -0.00327152)
(0.875152 0.00626231 -0.00272324)
(0.869824 0.0057786 -0.0022567)
(0.864942 0.00538636 -0.00185952)
(0.860579 0.00508794 -0.00151983)
(0.85683 0.00489287 -0.00122947)
(0.853833 0.00481653 -0.000979859)
(0.851791 0.00487383 -0.000761302)
(0.850927 0.00508885 -0.00056694)
(0.851526 0.00549193 -0.000390868)
(0.853934 0.00612231 -0.00022854)
(0.858571 0.0070239 -7.16864e-05)
(0.865928 0.00824714 8.59757e-05)
(0.876559 0.00984442 0.000251102)
(0.891076 0.0118593 0.000438521)
(0.910114 0.01433 0.000654939)
(0.934305 0.0172694 0.000912684)
(0.964226 0.0206586 0.00122058)
(1.00014 0.0244223 0.0015895)
(1.0444 0.028457 0.00198324)
(1.00238 -0.168621 0.0476686)
(1.0095 -0.10214 0.0585216)
(1.00235 -0.0683146 0.0557162)
(0.990845 -0.0476563 0.0507904)
(0.979372 -0.0342624 0.0455074)
(0.968287 -0.0251898 0.0403677)
(0.957431 -0.0188126 0.0356725)
(0.946843 -0.014207 0.0315103)
(0.936589 -0.0108175 0.0278639)
(0.926702 -0.0082865 0.0246868)
(0.917185 -0.00637627 0.0219255)
(0.908047 -0.00492049 0.0195286)
(0.899277 -0.00380417 0.0174475)
(0.890879 -0.00294364 0.01564)
(0.882836 -0.00227153 0.0140679)
(0.875132 -0.00174597 0.0126981)
(0.867749 -0.00133419 0.0115029)
(0.860665 -0.00100743 0.0104582)
(0.853852 -0.000745423 0.00954316)
(0.847277 -0.000531895 0.00874006)
(0.840901 -0.000353548 0.00803389)
(0.834673 -0.000198816 0.00741201)
(0.828531 -5.78763e-05 0.00686348)
(0.822396 7.96107e-05 0.00637906)
(0.816167 0.000223568 0.00595096)
(0.809712 0.000386098 0.00557312)
(0.802862 0.000580437 0.00523993)
(0.795392 0.000824797 0.0049471)
(0.787013 0.00114073 0.00469039)
(0.77734 0.00155916 0.00446586)
(0.765872 0.00211907 0.00426778)
(0.751951 0.00287704 0.00408645)
(0.734712 0.00390852 0.00390097)
(0.713029 0.00532498 0.00366699)
(0.685429 0.00728483 0.00327565)
(0.649999 0.010038 0.00245703)
(0.604206 0.0139961 0.000476161)
(0.544091 0.0199327 -0.00449335)
(0.462656 0.0294807 -0.0169944)
(0.339433 0.0544897 -0.0478366)
(1.01056 0.0511385 0.0402632)
(1.00359 0.0503527 0.0454789)
(1.0014 0.0405779 0.0406407)
(0.999228 0.032498 0.035695)
(0.997929 0.0261938 0.0313099)
(0.997066 0.021259 0.0274654)
(0.996135 0.0174348 0.0241904)
(0.994983 0.0144669 0.0214323)
(0.993589 0.0121436 0.0191056)
(0.991946 0.0103062 0.0171303)
(0.990054 0.00883953 0.0154431)
(0.987928 0.00765876 0.0139924)
(0.985585 0.00670102 0.0127379)
(0.98305 0.00591882 0.0116464)
(0.980343 0.00527676 0.0106924)
(0.977484 0.00474732 0.009854)
(0.974492 0.00431033 0.00911408)
(0.971378 0.00395091 0.00845877)
(0.968148 0.00365793 0.00787611)
(0.964803 0.00342468 0.00735668)
(0.96133 0.00324751 0.0068922)
(0.95771 0.00312668 0.00647644)
(0.953904 0.00306576 0.0061035)
(0.949859 0.00307337 0.00576927)
(0.945491 0.00316318 0.00546986)
(0.940693 0.00335574 0.00520285)
(0.935303 0.00368032 0.00496577)
(0.92912 0.00417801 0.00475754)
(0.921853 0.00490498 0.00457662)
(0.913138 0.00593936 0.00442231)
(0.902462 0.00738703 0.00429217)
(0.889181 0.00939614 0.00418114)
(0.872398 0.0121689 0.00407524)
(0.850982 0.0159941 0.00394215)
(0.823384 0.0212766 0.00369702)
(0.787635 0.02863 0.00312565)
(0.74104 0.03902 0.00162743)
(0.67962 0.0542163 -0.0023549)
(0.597061 0.077956 -0.0127338)
(0.477332 0.124778 -0.0391533)
(0.996939 -0.00225022 0.035821)
(0.992359 -0.00646421 0.0390253)
(0.99437 -0.00926642 0.0342942)
(0.995926 -0.00934717 0.0296007)
(0.997449 -0.00845336 0.0254896)
(0.998978 -0.00732734 0.0219515)
(1.00027 -0.00616337 0.0189872)
(1.00128 -0.00504715 0.0165362)
(1.00206 -0.00402841 0.0145118)
(1.00263 -0.00312506 0.0128323)
(1.003 -0.00233848 0.0114327)
(1.00319 -0.00166016 0.0102599)
(1.0032 -0.0010795 0.00927234)
(1.00304 -0.000583939 0.008436)
(1.00273 -0.000160443 0.00772442)
(1.00226 0.000203073 0.00711553)
(1.00165 0.00051751 0.00659185)
(1.00089 0.00079454 0.00613928)
(0.999981 0.00104586 0.00574646)
(0.998916 0.0012842 0.00540401)
(0.997681 0.00152318 0.00510458)
(0.99625 0.00177916 0.00484207)
(0.994589 0.00207201 0.00461176)
(0.992646 0.00242708 0.00440993)
(0.990347 0.00287667 0.00423422)
(0.987591 0.00346312 0.0040823)
(0.984242 0.00424273 0.00395362)
(0.980114 0.00529044 0.00384758)
(0.974957 0.00670707 0.00376564)
(0.96844 0.00862816 0.00370749)
(0.960121 0.0112386 0.00367539)
(0.949413 0.0147909 0.00366637)
(0.935543 0.019634 0.00367604)
(0.91749 0.0262568 0.0036797)
(0.893912 0.0353524 0.00361806)
(0.863065 0.0479431 0.00331879)
(0.822689 0.0656237 0.00231092)
(0.76982 0.0911307 -0.000702358)
(0.700916 0.129809 -0.0089222)
(0.608802 0.195139 -0.02979)
(0.999005 -0.00184493 0.0302358)
(0.99453 0.00206261 0.0309012)
(0.995895 0.00451962 0.0251163)
(0.997007 0.00602823 0.0201319)
(0.99825 0.00681845 0.0161998)
(0.999703 0.00705509 0.0131374)
(1.00111 0.00697012 0.0108038)
(1.00239 0.00671939 0.00904566)
(1.00354 0.00638674 0.00772008)
(1.00456 0.00601965 0.00671262)
(1.00546 0.00564765 0.00593962)
(1.00622 0.00528842 0.00534019)
(1.00686 0.00495235 0.00487024)
(1.00736 0.00464508 0.00449729)
(1.00775 0.00437048 0.00419789)
(1.00801 0.00413039 0.00395427)
(1.00816 0.0039264 0.00375369)
(1.00819 0.00376121 0.00358647)
(1.00809 0.00363887 0.00344563)
(1.00786 0.00356576 0.00332576)
(1.00749 0.0035512 0.00322305)
(1.00696 0.00360911 0.00313458)
(1.00622 0.00375946 0.00305848)
(1.00525 0.00403024 0.0029935)
(1.00397 0.00445982 0.00293919)
(1.00229 0.0051011 0.00289544)
(1.00011 0.00602601 0.00286327)
(0.997259 0.00733255 0.00284393)
(0.993537 0.00915371 0.00283976)
(0.988666 0.0116703 0.00285383)
(0.982284 0.0151291 0.00288918)
(0.973915 0.0198687 0.00294849)
(0.96294 0.0263587 0.00303258)
(0.948555 0.0352523 0.00312922)
(0.929738 0.04748 0.0032009)
(0.905204 0.0643829 0.00312678)
(0.873459 0.0879841 0.00256106)
(0.832982 0.121469 0.000505129)
(0.782917 0.170223 -0.00551694)
(0.72088 0.243734 -0.0207219)
(0.999725 -0.000963447 0.0298609)
(0.995528 0.0016199 0.0302607)
(0.996319 0.00243058 0.0246191)
(0.9972 0.00240821 0.0199942)
(0.998405 0.00222778 0.0164443)
(0.999897 0.00199947 0.0136745)
(1.00139 0.00179256 0.0115187)
(1.00277 0.00164446 0.00983708)
(1.00404 0.00155494 0.00851176)
(1.00519 0.00151147 0.00745323)
(1.00622 0.00150168 0.00659813)
(1.00713 0.0015158 0.00590099)
(1.00793 0.00154638 0.00532851)
(1.00861 0.00158856 0.00485535)
(1.00918 0.00163997 0.00446226)
(1.00964 0.00170033 0.00413398)
(1.01001 0.00177123 0.00385865)
(1.01027 0.00185698 0.00362671)
(1.01043 0.00196448 0.00343065)
(1.01048 0.0021041 0.00326427)
(1.0104 0.00229011 0.00312272)
(1.01018 0.00254256 0.00300207)
(1.00979 0.00288866 0.00289936)
(1.0092 0.00336539 0.00281228)
(1.00834 0.00402267 0.00273937)
(1.00716 0.00492778 0.00267962)
(1.00555 0.00617058 0.00263307)
(1.00338 0.0078727 0.00260028)
(1.00049 0.0101976 0.00258298)
(0.996663 0.013366 0.00258364)
(0.99161 0.0176765 0.00260595)
(0.984973 0.0235362 0.00265427)
(0.9763 0.0315029 0.00273096)
(0.965032 0.0423475 0.00283374)
(0.950509 0.0571469 0.0029422)
(0.932 0.077416 0.00298072)
(0.908848 0.105315 0.0027179)
(0.880746 0.14395 0.0014642)
(0.848877 0.197759 -0.00256613)
(0.813448 0.272234 -0.0129177)
(1.00012 -0.000760713 0.0303717)
(0.996209 0.000869755 0.0306645)
(0.996785 0.00169633 0.024723)
(0.997622 0.00212357 0.019816)
(0.998846 0.00250286 0.0159803)
(1.00035 0.00279534 0.0129614)
(1.00185 0.00299418 0.0106171)
(1.00325 0.00312424 0.00881296)
(1.00455 0.00320089 0.00742519)
(1.00573 0.00323372 0.00635331)
(1.00681 0.00323239 0.00552155)
(1.00777 0.00320629 0.00487315)
(1.00862 0.00316386 0.00436533)
(1.00936 0.00311257 0.0039655)
(1.01 0.00305953 0.00364895)
(1.01054 0.00301157 0.00339672)
(1.01098 0.00297587 0.00319439)
(1.01133 0.00296076 0.0030309)
(1.01158 0.0029766 0.00289781)
(1.01172 0.00303665 0.0027886)
(1.01176 0.00315843 0.00269833)
(1.01167 0.00336535 0.00262325)
(1.01143 0.00368905 0.00256058)
(1.01102 0.00417207 0.00250835)
(1.01039 0.00487175 0.00246529)
(1.00948 0.00586528 0.00243075)
(1.00822 0.00725574 0.00240472)
(1.00651 0.00918168 0.00238799)
(1.00421 0.0118288 0.00238222)
(1.00117 0.015446 0.00239005)
(0.997176 0.0203679 0.00241498)
(0.991976 0.0270454 0.00246227)
(0.985274 0.0360896 0.00253671)
(0.976741 0.0483297 0.00264116)
(0.966052 0.0648972 0.00276735)
(0.952974 0.08733 0.00287445)
(0.937561 0.117696 0.00281879)
(0.920459 0.158696 0.00217285)
(0.903937 0.213655 -0.00026574)
(0.890081 0.285378 -0.0068708)
(1.00041 -0.000534622 0.0306734)
(0.996733 0.000568003 0.0310674)
(0.997152 0.00125142 0.0250788)
(0.997898 0.00160219 0.0201519)
(0.999069 0.00184068 0.016321)
(1.00052 0.0019684 0.0133297)
(1.00198 0.00200672 0.0110283)
(1.00336 0.00199674 0.00926874)
(1.00465 0.00196342 0.00791703)
(1.00583 0.0019191 0.00686786)
(1.00691 0.00187155 0.00604431)
(1.00788 0.00182613 0.00539074)
(1.00874 0.00178649 0.00486665)
(1.0095 0.00175553 0.00444216)
(1.01016 0.00173622 0.00409514)
(1.01073 0.00173216 0.00380891)